 &FCI NORB=  4,NELEC=  4,MS2= 0,
  ORBSYM=1,1,1,1,
  ISYM=1,
 /
  1.0000000000000000e+00   1   1   1   1
  1.0000000000000000e+00   2   2   2   2
  1.0000000000000000e+00   3   3   3   3
  1.0000000000000000e+00   4   4   4   4
  1.0000000000000001e-01   4   3   2   1
  1.0000000000000001e-01   4   2   3   1
  1.0000000000000001e-01   4   1   3   2
  1.0000000000000000e+00   2   1   0   0
  1.0000000000000000e+00   3   1   0   0
  1.0000000000000000e+00   3   2   0   0
  1.0000000000000000e+00   4   1   0   0
  1.0000000000000000e+00   4   2   0   0
  1.0000000000000000e+00   4   3   0   0
  0.0000000000000000e+00   0   0   0   0
