 &FCI NORB= 12,NELEC= 12,MS2= 0,
  ORBSYM=1,1,1,1,1,1,1,1,1,1,1,1,
  ISYM=1,
 /
  1.0000000000000000e+00   1   1   1   1
  1.0000000000000000e+00   2   2   2   2
  1.0000000000000000e+00   3   3   3   3
  1.0000000000000000e+00   4   4   4   4
  1.0000000000000000e+00   5   5   5   5
  1.0000000000000000e+00   6   6   6   6
  1.0000000000000000e+00   7   7   7   7
  1.0000000000000000e+00   8   8   8   8
  1.0000000000000000e+00   9   9   9   9
  1.0000000000000000e+00  10  10  10  10
  1.0000000000000000e+00  11  11  11  11
  1.0000000000000000e+00  12  12  12  12
  1.0000000000000000e+00   2   1   0   0
  1.0000000000000000e+00   3   2   0   0
  1.0000000000000000e+00   4   3   0   0
  1.0000000000000000e+00   5   4   0   0
  1.0000000000000000e+00   6   5   0   0
  1.0000000000000000e+00   7   6   0   0
  1.0000000000000000e+00   8   7   0   0
  1.0000000000000000e+00   9   8   0   0
  1.0000000000000000e+00  10   9   0   0
  1.0000000000000000e+00  11  10   0   0
  1.0000000000000000e+00  12  11   0   0
  0.0000000000000000e+00   0   0   0   0
