 &FCI NORB= 10,NELEC=10,MS2= 0,
  ORBSYM=1,1,1,1,1,1,1,1,1,1,
  ISYM=1
 &END
   0.825337811246      1  1  1  1
  -0.342969423580E-02  2  1  1  1
   0.395831088840E-03  2  1  2  1
   0.240674642759      2  2  1  1
  -0.128738574095E-02  2  2  2  1
   0.891237291256      2  2  2  2
  -0.177315393348E-03  3  1  1  1
   0.888464792383E-05  3  1  2  1
   0.229387807866E-03  3  1  2  2
   0.600629782695E-06  3  1  3  1
   0.681398331405E-03  3  2  1  1
   0.611723211226E-04  3  2  2  1
   0.286050969340E-02  3  2  2  2
  -0.749597272253E-05  3  2  3  1
   0.431484963843E-03  3  2  3  2
   0.122646267766      3  3  1  1
  -0.397737355892E-03  3  3  2  1
   0.247808794565      3  3  2  2
  -0.186124184473E-03  3  3  3  1
   0.285517012537E-02  3  3  3  2
   0.891415558496      3  3  3  3
  -0.100500391812E-04  4  1  1  1
   0.384950056114E-06  4  1  2  1
   0.638193799388E-05  4  1  2  2
   0.164115871548E-07  4  1  3  1
  -0.944621347970E-07  4  1  3  2
   0.524106315955E-05  4  1  3  3
   0.121025683785E-08  4  1  4  1
   0.406684995336E-04  4  2  1  1
   0.155769411242E-05  4  2  2  1
   0.211187342145E-03  4  2  2  2
  -0.138930621990E-07  4  2  3  1
   0.895604740545E-05  4  2  3  2
  -0.225316161845E-03  4  2  3  3
  -0.155395042830E-07  4  2  4  1
   0.714995003670E-06  4  2  4  2
   0.129211440438E-03  4  3  1  1
  -0.441043482319E-05  4  3  2  1
   0.724603328116E-03  4  3  2  2
   0.101716908535E-05  4  3  3  1
  -0.582237604245E-04  4  3  3  2
   0.285819301028E-02  4  3  3  3
  -0.339811556919E-06  4  3  4  1
   0.895400748091E-05  4  3  4  2
   0.431562150427E-03  4  3  4  3
   0.823055221481E-01  4  4  1  1
  -0.234919768800E-04  4  4  2  1
   0.124607204551      4  4  2  2
  -0.370973386694E-04  4  4  3  1
   0.724079826488E-03  4  4  3  2
   0.247826874513      4  4  3  3
  -0.964293330577E-05  4  4  4  1
   0.211155412908E-03  4  4  4  2
   0.285824641848E-02  4  4  4  3
   0.891408341250      4  4  4  4
   0.483601491644E-06  5  1  1  1
  -0.184608294099E-07  5  1  2  1
  -0.241906543301E-06  5  1  2  2
  -0.762627505824E-09  5  1  3  1
   0.377560584691E-08  5  1  3  2
  -0.127781535999E-06  5  1  3  3
  -0.374662510448E-10  5  1  4  1
   0.184711384189E-09  5  1  4  2
   0.402685598524E-08  5  1  4  3
  -0.194917285926E-06  5  1  4  4
   0.299023770427E-11  5  1  5  1
  -0.216592412309E-05  5  2  1  1
  -0.590101787297E-07  5  2  2  1
  -0.113260492342E-04  5  2  2  2
   0.579067558865E-09  5  2  3  1
  -0.389473334706E-06  5  2  3  2
   0.588063948264E-05  5  2  3  3
   0.185623165286E-09  5  2  4  1
  -0.183255480366E-07  5  2  4  2
  -0.115216109133E-06  5  2  4  3
   0.595840232634E-05  5  2  4  4
  -0.363826582627E-10  5  2  5  1
   0.145801933097E-08  5  2  5  2
  -0.934769383233E-05  5  3  1  1
   0.209085681792E-06  5  3  2  1
  -0.425317285209E-04  5  3  2  2
   0.229824758065E-08  5  3  3  1
   0.120408819220E-05  5  3  3  2
  -0.209233076752E-03  5  3  3  3
   0.130381771538E-08  5  3  4  1
  -0.327309576428E-07  5  3  4  2
  -0.885902294919E-05  5  3  4  3
   0.225841213100E-03  5  3  4  4
  -0.744313965260E-09  5  3  5  1
   0.184112775431E-07  5  3  5  2
   0.707689762972E-06  5  3  5  3
  -0.418865634525E-04  5  4  1  1
   0.278758813226E-06  5  4  2  1
  -0.126803261725E-03  5  4  2  2
   0.256231552081E-06  5  4  3  1
  -0.587434839746E-05  5  4  3  2
  -0.702582957219E-03  5  4  3  3
  -0.368455617411E-07  5  4  4  1
   0.124056262867E-05  5  4  4  2
   0.584832381863E-04  5  4  4  3
  -0.275002786692E-02  5  4  4  4
  -0.164945697286E-07  5  4  5  1
   0.393263660800E-06  5  4  5  2
   0.896593726239E-05  5  4  5  3
   0.429235490635E-03  5  4  5  4
   0.619003686675E-01  5  5  1  1
   0.928678233438E-05  5  5  2  1
   0.831489727616E-01  5  5  2  2
  -0.816778787970E-05  5  5  3  1
   0.133794281407E-03  5  5  3  2
   0.124494475488      5  5  3  3
  -0.190153958034E-05  5  5  4  1
   0.428408424965E-04  5  5  4  2
   0.722052484920E-03  5  5  4  3
   0.247394448513      5  5  4  4
   0.476526953778E-06  5  5  5  1
  -0.113920831342E-04  5  5  5  2
  -0.209793899080E-03  5  5  5  3
  -0.293542991318E-02  5  5  5  4
   0.887261639977      5  5  5  5
  -0.845058602624E-02  6  1  1  1
   0.899965472008E-03  6  1  2  1
  -0.117077404299E-01  6  1  2  2
   0.270692633271E-04  6  1  3  1
  -0.133950150426E-03  6  1  3  2
  -0.106831781339E-02  6  1  3  3
   0.135522819931E-05  6  1  4  1
  -0.601497822862E-05  6  1  4  2
  -0.683540600025E-05  6  1  4  3
  -0.240270361273E-03  6  1  4  4
  -0.649962400256E-07  6  1  5  1
   0.290697171281E-06  6  1  5  2
   0.368954787153E-06  6  1  5  3
   0.822716673339E-06  6  1  5  4
  -0.820937831100E-04  6  1  5  5
   0.933162815630E-02  6  1  6  1
   0.114553500644E-01  6  2  1  1
  -0.998623922686E-03  6  2  2  1
   0.140538061381E-01  6  2  2  2
  -0.113737603835E-04  6  2  3  1
  -0.296936595512E-03  6  2  3  2
   0.346947682495E-02  6  2  3  3
  -0.514382076914E-06  6  2  4  1
  -0.618889956302E-05  6  2  4  2
   0.309137878002E-04  6  2  4  3
   0.576525229133E-03  6  2  4  4
   0.260079671176E-07  6  2  5  1
   0.196817163088E-06  6  2  5  2
  -0.150271979297E-05  6  2  5  3
  -0.232848265748E-05  6  2  5  4
   0.189262390761E-03  6  2  5  5
   0.150265178547E-02  6  2  6  1
   0.102630183756E-01  6  2  6  2
   0.510662183603E-03  6  3  1  1
  -0.211431486895E-05  6  3  2  1
  -0.105951038610E-02  6  3  2  2
  -0.206059733705E-05  6  3  3  1
   0.527079342098E-04  6  3  3  2
   0.766639593871E-03  6  3  3  3
  -0.368471940307E-07  6  3  4  1
   0.494545161321E-06  6  3  4  2
  -0.863063741737E-05  6  3  4  3
   0.169510389100E-03  6  3  4  4
   0.160953961106E-08  6  3  5  1
  -0.199741708019E-07  6  3  5  2
   0.119618675653E-06  6  3  5  3
  -0.125589830719E-05  6  3  5  4
   0.348360610551E-04  6  3  5  5
   0.461731944666E-04  6  3  6  1
   0.162088754602E-03  6  3  6  2
   0.170455852221E-04  6  3  6  3
   0.273059296367E-04  6  4  1  1
  -0.319838584132E-07  6  4  2  1
  -0.228134115362E-04  6  4  2  2
  -0.289270331378E-07  6  4  3  1
   0.865447064409E-06  6  4  3  2
  -0.368838014707E-04  6  4  3  3
  -0.390623975128E-08  6  4  4  1
   0.995346776906E-07  6  4  4  2
   0.177362147522E-05  6  4  4  3
   0.504437213257E-04  6  4  4  4
   0.728636507563E-10  6  4  5  1
  -0.161311867343E-08  6  4  5  2
  -0.446904369164E-08  6  4  5  3
   0.204062774875E-06  6  4  5  4
   0.100413694774E-04  6  4  5  5
   0.114222796621E-05  6  4  6  1
   0.702971073038E-05  6  4  6  2
   0.413073833983E-06  6  4  6  3
   0.310705085091E-07  6  4  6  4
  -0.134070724488E-05  6  5  1  1
   0.376483662959E-08  6  5  2  1
   0.719458791146E-06  6  5  2  2
   0.128642931170E-08  6  5  3  1
  -0.355354015228E-07  6  5  3  2
   0.949192032289E-06  6  5  3  3
   0.759837942991E-10  6  5  4  1
  -0.166989922851E-08  6  5  4  2
  -0.206784938090E-07  6  5  4  3
   0.106621450390E-05  6  5  4  4
  -0.983035941970E-11  6  5  5  1
   0.217377017924E-09  6  5  5  2
   0.386289939318E-08  6  5  5  3
   0.865061042517E-07  6  5  5  4
  -0.249498611323E-05  6  5  5  5
  -0.492829386530E-07  6  5  6  1
  -0.345962872656E-06  6  5  6  2
  -0.185743645394E-07  6  5  6  3
  -0.847338188354E-09  6  5  6  4
   0.721598734176E-10  6  5  6  5
   0.439918152664      6  6  1  1
   0.569833119021E-02  6  6  2  1
   0.458939110338      6  6  2  2
   0.163832709409E-03  6  6  3  1
   0.245703078988E-02  6  6  3  2
   0.165690497441      6  6  3  3
   0.407339720733E-05  6  6  4  1
   0.127590580779E-03  6  6  4  2
   0.275946046275E-03  6  6  4  3
   0.997095479678E-01  6  6  4  4
  -0.167584142842E-06  6  6  5  1
  -0.646521521906E-05  6  6  5  2
  -0.182814346684E-04  6  6  5  3
  -0.703317486287E-04  6  6  5  4
   0.712662772097E-01  6  6  5  5
  -0.120709422807E-01  6  6  6  1
   0.136873300756E-01  6  6  6  2
   0.793091896896E-03  6  6  6  3
   0.505102459957E-04  6  6  6  4
  -0.249508281455E-05  6  6  6  5
   0.887261639978      6  6  6  6
   0.795175776006E-03  7  1  1  1
  -0.519321222986E-04  7  1  2  1
  -0.112496308352E-02  7  1  2  2
  -0.215798391541E-05  7  1  3  1
  -0.125514248618E-05  7  1  3  2
   0.410809372222E-03  7  1  3  3
  -0.806268584878E-07  7  1  4  1
  -0.306876777829E-06  7  1  4  2
   0.430854217922E-05  7  1  4  3
   0.420732098597E-04  7  1  4  4
   0.384592233624E-08  7  1  5  1
   0.106447556875E-07  7  1  5  2
  -0.197496655455E-06  7  1  5  3
  -0.257195285804E-06  7  1  5  4
   0.854514578217E-05  7  1  5  5
  -0.141419834629E-03  7  1  6  1
   0.772374354922E-04  7  1  6  2
   0.415927209804E-05  7  1  6  3
   0.904902430159E-07  7  1  6  4
  -0.466668161811E-08  7  1  6  5
  -0.103100522248E-02  7  1  6  6
   0.150713716983E-04  7  1  7  1
  -0.324524732152E-02  7  2  1  1
  -0.312462780209E-03  7  2  2  1
  -0.140049185589E-01  7  2  2  2
   0.953449428753E-05  7  2  3  1
  -0.104127782862E-02  7  2  3  2
  -0.125758520549E-01  7  2  3  3
   0.219453630870E-06  7  2  4  1
  -0.320849509986E-04  7  2  4  2
  -0.140820598450E-03  7  2  4  3
  -0.124338417488E-02  7  2  4  4
  -0.123236809547E-07  7  2  5  1
   0.158556953938E-05  7  2  5  2
   0.629517235296E-05  7  2  5  3
   0.726982195094E-05  7  2  5  4
  -0.312958178908E-03  7  2  5  5
   0.724460520063E-03  7  2  6  1
   0.145737397998E-02  7  2  6  2
  -0.795198427120E-04  7  2  6  3
  -0.235709616908E-05  7  2  6  4
   0.124257999577E-06  7  2  6  5
  -0.124957221208E-01  7  2  6  6
  -0.135188305697E-03  7  2  7  1
   0.103356752569E-01  7  2  7  2
  -0.118055933792E-02  7  3  1  1
   0.111630718452E-03  7  3  2  1
  -0.125683968469E-01  7  3  2  2
   0.262135672718E-04  7  3  3  1
  -0.104215285966E-02  7  3  3  2
  -0.140240134708E-01  7  3  3  3
   0.209662386139E-06  7  3  4  1
  -0.118229013054E-04  7  3  4  2
   0.297561403768E-03  7  3  4  3
  -0.346714578790E-02  7  3  4  4
  -0.973459735716E-08  7  3  5  1
   0.537457374283E-06  7  3  5  2
  -0.614440640858E-05  7  3  5  3
   0.303990230910E-04  7  3  5  4
  -0.574255171108E-03  7  3  5  5
   0.150708061022E-03  7  3  6  1
  -0.761835113426E-03  7  3  6  2
  -0.162194947502E-03  7  3  6  3
  -0.148359844210E-05  7  3  6  4
   0.662300494525E-07  7  3  6  5
  -0.345338048602E-02  7  3  6  6
   0.434111389904E-04  7  3  7  1
  -0.145932796990E-02  7  3  7  2
   0.103391845335E-01  7  3  7  3
  -0.680368357862E-04  7  4  1  1
   0.415952844859E-05  7  4  2  1
  -0.547136843737E-03  7  4  2  2
  -0.321812292515E-06  7  4  3  1
   0.803863583130E-06  7  4  3  2
   0.106411677342E-02  7  4  3  3
   0.719708607739E-07  7  4  4  1
  -0.232350500744E-05  7  4  4  2
  -0.529217982277E-04  7  4  4  3
  -0.786050459758E-03  7  4  4  4
  -0.808904914650E-09  7  4  5  1
   0.390268885076E-07  7  4  5  2
   0.480272075123E-06  7  4  5  3
  -0.871157145412E-05  7  4  5  4
  -0.173069750792E-03  7  4  5  5
   0.620130316553E-05  7  4  6  1
  -0.287835989206E-04  7  4  6  2
   0.129673099601E-05  7  4  6  3
  -0.409347160104E-06  7  4  6  4
   0.526741154347E-08  7  4  6  5
  -0.173069768203E-03  7  4  6  6
   0.118971655208E-05  7  4  7  1
  -0.444076786332E-04  7  4  7  2
   0.164079445236E-03  7  4  7  3
   0.171768243857E-04  7  4  7  4
   0.429593717374E-05  7  5  1  1
  -0.200870073000E-06  7  5  2  1
   0.291371818809E-04  7  5  2  2
   0.114513941607E-07  7  5  3  1
  -0.613017558427E-07  7  5  3  2
  -0.225889600399E-04  7  5  3  3
  -0.596527838562E-09  7  5  4  1
   0.320048580425E-07  7  5  4  2
   0.855592641806E-06  7  5  4  3
  -0.371080821530E-04  7  5  4  4
   0.156358518501E-09  7  5  5  1
  -0.445115604026E-08  7  5  5  2
  -0.995005626478E-07  7  5  5  3
  -0.179565518427E-05  7  5  5  4
   0.505101364723E-04  7  5  5  5
  -0.314517839205E-06  7  5  6  1
   0.140210177534E-05  7  5  6  2
  -0.532961134922E-07  7  5  6  3
   0.381834009615E-08  7  5  6  4
  -0.847332775221E-09  7  5  6  5
   0.100413940648E-04  7  5  6  6
  -0.226044680193E-07  7  5  7  1
   0.992498178381E-06  7  5  7  2
  -0.705138978550E-05  7  5  7  3
  -0.409347259471E-06  7  5  7  4
   0.310705087799E-07  7  5  7  5
  -0.231188111108E-02  7  6  1  1
   0.431370792811E-04  7  6  2  1
   0.566252456741E-02  7  6  2  2
   0.543813220442E-05  7  6  3  1
  -0.312561843320E-04  7  6  3  2
  -0.241691650073E-02  7  6  3  3
   0.157916077197E-06  7  6  4  1
   0.434813629139E-06  7  6  4  2
  -0.257689109401E-04  7  6  4  3
  -0.264806469532E-03  7  6  4  4
  -0.764934033707E-08  7  6  5  1
  -0.679879219892E-09  7  6  5  2
   0.116616402318E-05  7  6  5  3
   0.144953919479E-05  7  6  5  4
  -0.703317485111E-04  7  6  5  5
  -0.301072467559E-03  7  6  6  1
  -0.102985089134E-02  7  6  6  2
  -0.528981018334E-04  7  6  6  3
  -0.179565555830E-05  7  6  6  4
   0.865064770109E-07  7  6  6  5
  -0.293542991458E-02  7  6  6  6
  -0.481998292393E-04  7  6  7  1
   0.104213834555E-02  7  6  7  2
  -0.298926557702E-03  7  6  7  3
  -0.871157114991E-05  7  6  7  4
   0.204062378553E-06  7  6  7  5
   0.429235490680E-03  7  6  7  6
   0.162498228018      7  7  1  1
  -0.169667224875E-02  7  7  2  1
   0.460176703095      7  7  2  2
   0.149816807815E-03  7  7  3  1
  -0.567529201204E-02  7  7  3  2
   0.460232919450      7  7  3  3
   0.588103674154E-05  7  7  4  1
  -0.158394970948E-03  7  7  4  2
   0.246874886609E-02  7  7  4  3
   0.165894131124      7  7  4  4
  -0.174020644079E-06  7  7  5  1
   0.372789238123E-05  7  7  5  2
  -0.126930318179E-03  7  7  5  3
  -0.264806469950E-03  7  7  5  4
   0.997095479678E-01  7  7  5  5
  -0.311964682770E-02  7  7  6  1
   0.125790082387E-01  7  7  6  2
  -0.107018446756E-02  7  7  6  3
  -0.371080711118E-04  7  7  6  4
   0.106619698923E-05  7  7  6  5
   0.247394448514      7  7  6  6
   0.534440278630E-03  7  7  7  1
  -0.140321930569E-01  7  7  7  2
  -0.140223486156E-01  7  7  7  3
  -0.786050545960E-03  7  7  7  4
   0.504438316976E-04  7  7  7  5
  -0.275002786469E-02  7  7  7  6
   0.891408341252      7  7  7  7
   0.430326645283E-04  8  1  1  1
  -0.176924976924E-05  8  1  2  1
  -0.385717553339E-04  8  1  2  2
  -0.873103715798E-07  8  1  3  1
   0.717740924841E-06  8  1  3  2
  -0.196005923250E-04  8  1  3  3
  -0.384051549337E-08  8  1  4  1
   0.253707513628E-07  8  1  4  2
  -0.644064442185E-07  8  1  4  3
   0.256514654685E-04  8  1  4  4
   0.160700886306E-09  8  1  5  1
  -0.539202030583E-09  8  1  5  2
   0.944367282631E-08  8  1  5  3
  -0.230321751834E-06  8  1  5  4
   0.385315977003E-05  8  1  5  5
  -0.598936978017E-05  8  1  6  1
   0.223360354201E-05  8  1  6  2
   0.235908318510E-06  8  1  6  3
   0.909464123189E-08  8  1  6  4
  -0.300997473165E-09  8  1  6  5
  -0.245868847221E-04  8  1  6  6
   0.390255725811E-06  8  1  7  1
  -0.117161340720E-05  8  1  7  2
  -0.183819190949E-05  8  1  7  3
  -0.620210124199E-07  8  1  7  4
   0.140399431433E-09  8  1  7  5
  -0.832788282524E-06  8  1  7  6
  -0.350537802147E-04  8  1  7  7
   0.259441294184E-07  8  1  8  1
  -0.163877550066E-03  8  2  1  1
  -0.973520937518E-05  8  2  2  1
  -0.786421620386E-03  8  2  2  2
   0.355198283464E-06  8  2  3  1
  -0.529168299091E-04  8  2  3  2
   0.106443927207E-02  8  2  3  3
   0.320706978882E-07  8  2  4  1
  -0.232365652363E-05  8  2  4  2
   0.812448039180E-06  8  2  4  3
  -0.546867428825E-03  8  2  4  4
  -0.798640750390E-09  8  2  5  1
   0.844284291552E-07  8  2  5  2
  -0.304318010093E-06  8  2  5  3
   0.529963876635E-05  8  2  5  4
  -0.709111178657E-04  8  2  5  5
   0.273063871387E-04  8  2  6  1
   0.443270922548E-04  8  2  6  2
  -0.418670279016E-05  8  2  6  3
  -0.256743914078E-06  8  2  6  4
   0.769272361714E-08  8  2  6  5
  -0.544771806659E-03  8  2  6  6
   0.127536554237E-05  8  2  7  1
   0.163965529769E-03  8  2  7  2
   0.793662571565E-04  8  2  7  3
   0.416884623057E-05  8  2  7  4
  -0.836818240553E-07  8  2  7  5
  -0.529836141315E-06  8  2  7  6
   0.106385384275E-02  8  2  7  7
  -0.348383084014E-06  8  2  8  1
   0.171732943135E-04  8  2  8  2
  -0.552495931691E-03  8  3  1  1
   0.231889140340E-04  8  3  2  1
  -0.346647173695E-02  8  3  2  2
  -0.520947640808E-05  8  3  3  1
   0.297615690047E-03  8  3  3  2
  -0.140234032400E-01  8  3  3  3
   0.462673935982E-06  8  3  4  1
  -0.118177638240E-04  8  3  4  2
  -0.104200171497E-02  8  3  4  3
  -0.125719853647E-01  8  3  4  4
  -0.110087016675E-07  8  3  5  1
   0.280852953582E-06  8  3  5  2
   0.316841759835E-04  8  3  5  3
   0.138871009734E-03  8  3  5  4
  -0.123889766755E-02  8  3  5  5
   0.338398920053E-04  8  3  6  1
  -0.160896724630E-03  8  3  6  2
   0.444541228593E-04  8  3  6  3
  -0.231811688085E-05  8  3  6  4
   0.529220480197E-07  8  3  6  5
  -0.123889766759E-02  8  3  6  6
  -0.231433907310E-04  8  3  7  1
   0.761770753269E-03  8  3  7  2
  -0.145952550346E-02  8  3  7  3
   0.793508405080E-04  8  3  7  4
  -0.231811851917E-05  8  3  7  5
   0.138871009803E-03  8  3  7  6
  -0.125719853665E-01  8  3  7  7
  -0.615836784124E-05  8  3  8  1
   0.164040832855E-03  8  3  8  2
   0.103393296609E-01  8  3  8  3
  -0.302822317263E-03  8  4  1  1
   0.498066387660E-05  8  4  2  1
  -0.124255472686E-02  8  4  2  2
   0.554158860146E-05  8  4  3  1
  -0.140746036987E-03  8  4  3  2
  -0.125724094891E-01  8  4  3  3
   0.139638427937E-05  8  4  4  1
  -0.320942627801E-04  8  4  4  2
  -0.104195470408E-02  8  4  4  3
  -0.140223486277E-01  8  4  4  4
  -0.139696377374E-07  8  4  5  1
   0.282133541158E-06  8  4  5  2
   0.116727832028E-04  8  4  5  3
  -0.298926557114E-03  8  4  5  4
  -0.345338048850E-02  8  4  5  5
   0.102037638111E-04  8  4  6  1
  -0.366901030518E-04  8  4  6  2
  -0.283632352064E-04  8  4  6  3
  -0.705138796130E-05  8  4  6  4
   0.662297742327E-07  8  4  6  5
  -0.574255170458E-03  8  4  6  6
  -0.525359931133E-05  8  4  7  1
   0.160970103804E-03  8  4  7  2
   0.761642925233E-03  8  4  7  3
   0.164079444190E-03  8  4  7  4
  -0.148359849391E-05  8  4  7  5
   0.303990229984E-04  8  4  7  6
  -0.346714578576E-02  8  4  7  7
   0.834874047620E-06  8  4  8  1
  -0.444270798690E-04  8  4  8  2
  -0.145952550326E-02  8  4  8  3
   0.103391845334E-01  8  4  8  4
   0.195870411849E-04  8  5  1  1
  -0.218624230087E-06  8  5  2  1
   0.689722938125E-04  8  5  2  2
  -0.216657792258E-06  8  5  3  1
   0.530341519960E-05  8  5  3  2
   0.537127427904E-03  8  5  3  3
   0.759449002383E-08  8  5  4  1
  -0.302666846020E-06  8  5  4  2
  -0.823332930169E-06  8  5  4  3
  -0.107018445561E-02  8  5  4  4
   0.358463026286E-08  8  5  5  1
  -0.852068882415E-07  8  5  5  2
  -0.231689673628E-05  8  5  5  3
  -0.528981018453E-04  8  5  5  4
   0.793091859223E-03  8  5  5  5
  -0.511437990615E-06  8  5  6  1
   0.168028071943E-05  8  5  6  2
   0.109024235972E-05  8  5  6  3
  -0.532959633516E-07  8  5  6  4
  -0.185742714585E-07  8  5  6  5
   0.348360639844E-04  8  5  6  6
   0.218653652269E-06  8  5  7  1
  -0.655106172094E-05  8  5  7  2
  -0.283632360155E-04  8  5  7  3
   0.129673090776E-05  8  5  7  4
   0.413073743566E-06  8  5  7  5
  -0.125589833069E-05  8  5  7  6
   0.169510397260E-03  8  5  7  7
  -0.103929854744E-07  8  5  8  1
   0.113429452752E-05  8  5  8  2
   0.444541221330E-04  8  5  8  3
  -0.162194948018E-03  8  5  8  4
   0.170455852287E-04  8  5  8  5
  -0.118801823320E-03  8  6  1  1
   0.463640618277E-07  8  6  2  1
   0.158380174417E-03  8  6  2  2
   0.200685064798E-06  8  6  3  1
  -0.572800840691E-05  8  6  3  2
   0.158182844672E-03  8  6  3  3
   0.952551158434E-08  8  6  4  1
  -0.223832721832E-06  8  6  4  2
   0.506627136953E-06  8  6  4  3
  -0.126930319175E-03  8  6  4  4
  -0.314560129472E-09  8  6  5  1
   0.634388677181E-08  8  6  5  2
  -0.637522297825E-07  8  6  5  3
   0.116616407589E-05  8  6  5  4
  -0.182814350420E-04  8  6  5  5
  -0.676967688883E-05  8  6  6  1
  -0.316810420013E-04  8  6  6  2
  -0.231689673896E-05  8  6  6  3
  -0.995005713341E-07  8  6  6  4
   0.386292233664E-08  8  6  6  5
  -0.209793889367E-03  8  6  6  6
  -0.519346067034E-06  8  6  7  1
   0.118390473085E-04  8  6  7  2
   0.116727832042E-04  8  6  7  3
   0.480271990968E-06  8  6  7  4
  -0.446900970242E-08  8  6  7  5
   0.896593715083E-05  8  6  7  6
   0.225841215486E-03  8  6  7  7
  -0.879554106573E-07  8  6  8  1
   0.230906915743E-05  8  6  8  2
   0.316841757443E-04  8  6  8  3
  -0.614440763091E-05  8  6  8  4
   0.119618678050E-06  8  6  8  5
   0.707689756370E-06  8  6  8  6
   0.263666810670E-03  8  7  1  1
  -0.205152221917E-04  8  7  2  1
   0.246820140900E-02  8  7  2  2
   0.738316815573E-06  8  7  3  1
   0.299053014518E-04  8  7  3  2
  -0.567612257241E-02  8  7  3  3
  -0.131149665784E-06  8  7  4  1
   0.573389947380E-05  8  7  4  2
   0.298495453941E-04  8  7  4  3
   0.246874886914E-02  8  7  4  4
   0.292227124342E-08  8  7  5  1
  -0.161023078821E-06  8  7  5  2
   0.506626878218E-06  8  7  5  3
  -0.257689110026E-04  8  7  5  4
   0.275946046894E-03  8  7  5  5
  -0.289015317135E-04  8  7  6  1
   0.140850578392E-03  8  7  6  2
  -0.823332575021E-06  8  7  6  3
   0.855592379667E-06  8  7  6  4
  -0.206785323489E-07  8  7  6  5
   0.722052482021E-03  8  7  6  6
  -0.842904891914E-05  8  7  7  1
   0.297511787305E-03  8  7  7  2
  -0.104195470390E-02  8  7  7  3
  -0.529217982106E-04  8  7  7  4
   0.177362184547E-05  8  7  7  5
   0.584832383744E-04  8  7  7  6
   0.285824640753E-02  8  7  7  7
   0.150317009405E-05  8  7  8  1
  -0.529211537807E-04  8  7  8  2
  -0.104200171529E-02  8  7  8  3
   0.297561404836E-03  8  7  8  4
  -0.863063724235E-05  8  7  8  5
  -0.885902295110E-05  8  7  8  6
   0.431562150625E-03  8  7  8  7
   0.985059227538E-01  8  8  1  1
  -0.100785280952E-03  8  8  2  1
   0.165885903096      8  8  2  2
  -0.111503398367E-03  8  8  3  1
   0.246736209557E-02  8  8  3  2
   0.460235204482      8  8  3  3
   0.338354578924E-05  8  8  4  1
  -0.158432497284E-03  8  8  4  2
  -0.567612257025E-02  8  8  4  3
   0.460232919449      8  8  4  4
  -0.150695360714E-06  8  8  5  1
   0.605461039459E-05  8  8  5  2
   0.158182844849E-03  8  8  5  3
  -0.241691650199E-02  8  8  5  4
   0.165690497441      8  8  5  5
  -0.468832675340E-03  8  8  6  1
   0.124424991362E-02  8  8  6  2
   0.537127410940E-03  8  8  6  3
  -0.225890063533E-04  8  8  6  4
   0.949197070428E-06  8  8  6  5
   0.124494475488      8  8  6  6
   0.118481548954E-03  8  8  7  1
  -0.346849981348E-02  8  8  7  2
  -0.125724094959E-01  8  8  7  3
   0.106411679881E-02  8  8  7  4
  -0.368837901264E-04  8  8  7  5
  -0.702582956484E-03  8  8  7  6
   0.247826874514      8  8  7  7
   0.448529222070E-04  8  8  8  1
  -0.785260692077E-03  8  8  8  2
  -0.140234032368E-01  8  8  8  3
  -0.140240134594E-01  8  8  8  4
   0.766639632821E-03  8  8  8  5
  -0.209233081785E-03  8  8  8  6
   0.285819301862E-02  8  8  8  7
   0.891415558498      8  8  8  8
  -0.222177188055E-05  9  1  1  1
   0.849326968126E-07  9  1  2  1
   0.118354746174E-05  9  1  2  2
   0.348687362612E-08  9  1  3  1
  -0.170101149979E-07  9  1  3  2
   0.847953960492E-06  9  1  3  3
   0.189021337330E-09  9  1  4  1
  -0.136027509787E-08  9  1  4  2
  -0.307319810675E-07  9  1  4  3
   0.676690700908E-06  9  1  4  4
  -0.967031819869E-11  9  1  5  1
   0.700629463420E-10  9  1  5  2
   0.127008516011E-08  9  1  5  3
   0.790862687050E-09  9  1  5  4
  -0.121306507063E-05  9  1  5  5
   0.299840798028E-06  9  1  6  1
  -0.118055053065E-06  9  1  6  2
  -0.729844993050E-08  9  1  6  3
  -0.429620464322E-09  9  1  6  4
   0.235855233220E-10  9  1  6  5
   0.800970386776E-06  9  1  6  6
  -0.176235636472E-07  9  1  7  1
   0.522061885386E-07  9  1  7  2
   0.400626766645E-07  9  1  7  3
   0.634256309931E-08  9  1  7  4
  -0.283499876977E-09  9  1  7  5
   0.344155221807E-07  9  1  7  6
   0.955732452133E-06  9  1  7  7
  -0.749758340653E-09  9  1  8  1
   0.425077263622E-08  9  1  8  2
   0.573673269520E-07  9  1  8  3
   0.109436999284E-06  9  1  8  4
  -0.422045934066E-08  9  1  8  5
   0.152976978514E-08  9  1  8  6
  -0.164528662331E-07  9  1  8  7
   0.943316516947E-06  9  1  8  8
   0.604206496557E-10  9  1  9  1
   0.963567319825E-05  9  2  1  1
   0.286001146471E-06  9  2  2  1
   0.508527052202E-04  9  2  2  2
  -0.900897687584E-09  9  2  3  1
   0.179369432911E-05  9  2  3  2
  -0.369664755708E-04  9  2  3  3
  -0.132412913503E-08  9  2  4  1
   0.100222357748E-06  9  2  4  2
   0.864856168595E-06  9  2  4  3
  -0.227752815802E-04  9  2  4  4
   0.670405721608E-10  9  2  5  1
  -0.445665923283E-08  9  2  5  2
  -0.323456753123E-07  9  2  5  3
   0.512026930932E-07  9  2  5  4
   0.292696522352E-04  9  2  5  5
  -0.133654048329E-05  9  2  6  1
  -0.100124909076E-05  9  2  6  2
   0.863634554788E-07  9  2  6  3
   0.102810272687E-07  9  2  6  4
  -0.483029971217E-09  9  2  6  5
   0.292695882858E-04  9  2  6  6
  -0.577891323487E-07  9  2  7  1
  -0.711487576954E-05  9  2  7  2
  -0.235476670904E-05  9  2  7  3
  -0.257613804235E-06  9  2  7  4
   0.102810115642E-07  9  2  7  5
   0.512018052107E-07  9  2  7  6
  -0.227753375661E-04  9  2  7  7
   0.282347559909E-08  9  2  8  1
  -0.413659403096E-06  9  2  8  2
  -0.150357479244E-05  9  2  8  3
  -0.235476860651E-05  9  2  8  4
   0.863632760856E-07  9  2  8  5
  -0.323457059627E-07  9  2  8  6
   0.864855887719E-06  9  2  8  7
  -0.369664615122E-04  9  2  8  8
  -0.721675969684E-09  9  2  9  1
   0.314225161371E-07  9  2  9  2
   0.349419715418E-04  9  3  1  1
  -0.935771654546E-06  9  3  2  1
   0.173478925378E-03  9  3  2  2
   0.941816583922E-07  9  3  3  1
  -0.862858033623E-05  9  3  3  2
   0.785260630605E-03  9  3  3  3
  -0.174995742755E-07  9  3  4  1
   0.488900219931E-06  9  3  4  2
   0.529211537206E-04  9  3  4  3
  -0.106385382528E-02  9  3  4  4
   0.150550256336E-08  9  3  5  1
  -0.394408660600E-07  9  3  5  2
  -0.230906912498E-05  9  3  5  3
   0.529836645550E-06  9  3  5  4
   0.544771834326E-03  9  3  5  5
  -0.156500139702E-05  9  3  6  1
   0.664877858279E-05  9  3  6  2
  -0.113429464430E-05  9  3  6  3
   0.836819902560E-07  9  3  6  4
  -0.769266693676E-08  9  3  6  5
   0.709111104065E-04  9  3  6  6
   0.892811328799E-06  9  3  7  1
  -0.287622057147E-04  9  3  7  2
   0.444270815418E-04  9  3  7  3
  -0.416884655739E-05  9  3  7  4
   0.256743912511E-06  9  3  7  5
  -0.529963858188E-05  9  3  7  6
   0.546867401062E-03  9  3  7  7
  -0.482590084149E-07  9  3  8  1
   0.130067649616E-05  9  3  8  2
  -0.164040831885E-03  9  3  8  3
  -0.793662571241E-04  9  3  8  4
   0.418670257171E-05  9  3  8  5
   0.304318026921E-06  9  3  8  6
  -0.812447615639E-06  9  3  8  7
  -0.106443929080E-02  9  3  8  8
  -0.161865283041E-07  9  3  9  1
   0.413659523011E-06  9  3  9  2
   0.171732943155E-04  9  3  9  3
   0.184029511159E-03  9  4  1  1
  -0.138152871547E-05  9  4  2  1
   0.575985653617E-03  9  4  2  2
  -0.132661385528E-05  9  4  3  1
   0.309102445203E-04  9  4  3  2
   0.346849981339E-02  9  4  3  3
   0.177033301076E-06  9  4  4  1
  -0.620044095575E-05  9  4  4  2
  -0.297511786328E-03  9  4  4  3
   0.140321930588E-01  9  4  4  4
   0.241133086874E-07  9  4  5  1
  -0.543349199667E-06  9  4  5  2
  -0.118390473895E-04  9  4  5  3
  -0.104213834554E-02  9  4  5  4
   0.124957221193E-01  9  4  5  5
  -0.387643917820E-05  9  4  6  1
   0.112756496596E-04  9  4  6  2
   0.655106160543E-05  9  4  6  3
  -0.992499940833E-06  9  4  6  4
  -0.124256375371E-06  9  4  6  5
   0.312958178936E-03  9  4  6  6
   0.128887233347E-05  9  4  7  1
  -0.366993019222E-04  9  4  7  2
  -0.160970103931E-03  9  4  7  3
   0.444076798741E-04  9  4  7  4
   0.235709441480E-05  9  4  7  5
  -0.726982194705E-05  9  4  7  6
   0.124338417485E-02  9  4  7  7
   0.123981728944E-05  9  4  8  1
  -0.287622068360E-04  9  4  8  2
  -0.761770753261E-03  9  4  8  3
   0.145932797003E-02  9  4  8  4
   0.795198427204E-04  9  4  8  5
  -0.629517265948E-05  9  4  8  6
   0.140820598868E-03  9  4  8  7
   0.125758520562E-01  9  4  8  8
  -0.303652559828E-06  9  4  9  1
   0.711487854544E-05  9  4  9  2
   0.163965530710E-03  9  4  9  3
   0.103356752570E-01  9  4  9  4
  -0.120103729410E-03  9  5  1  1
   0.467054253142E-06  9  5  2  1
  -0.313797009137E-03  9  5  2  2
   0.357613749522E-06  9  5  3  1
  -0.743255895944E-05  9  5  3  2
  -0.124424991373E-02  9  5  3  3
   0.266463478807E-06  9  5  4  1
  -0.635438080983E-05  9  5  4  2
  -0.140850578453E-03  9  5  4  3
  -0.125790082386E-01  9  5  4  4
  -0.653260954268E-07  9  5  5  1
   0.158116549425E-05  9  5  5  2
   0.316810429390E-04  9  5  5  3
   0.102985089132E-02  9  5  5  4
  -0.136873300756E-01  9  5  5  5
   0.172108800268E-05  9  5  6  1
  -0.438333178439E-05  9  5  6  2
  -0.168028064059E-05  9  5  6  3
  -0.140209988749E-05  9  5  6  4
   0.345961396773E-06  9  5  6  5
  -0.189262390781E-03  9  5  6  6
  -0.414268484270E-06  9  5  7  1
   0.112756496611E-04  9  5  7  2
   0.366901030625E-04  9  5  7  3
   0.287835972911E-04  9  5  7  4
  -0.702970925850E-05  9  5  7  5
   0.232848264993E-05  9  5  7  6
  -0.576525229198E-03  9  5  7  7
  -0.299413103664E-06  9  5  8  1
   0.664877883699E-05  9  5  8  2
   0.160896724590E-03  9  5  8  3
   0.761835113649E-03  9  5  8  4
  -0.162088754335E-03  9  5  8  5
   0.150271968438E-05  9  5  8  6
  -0.309137877205E-04  9  5  8  7
  -0.346947682520E-02  9  5  8  8
  -0.380233297816E-07  9  5  9  1
   0.100124669809E-05  9  5  9  2
   0.443270910661E-04  9  5  9  3
   0.145737397996E-02  9  5  9  4
   0.102630183756E-01  9  5  9  5
   0.611149597718E-05  9  6  1  1
  -0.145619199451E-07  9  6  2  1
  -0.375438361110E-05  9  6  2  2
  -0.573357684727E-08  9  6  3  1
   0.163397675210E-06  9  6  3  2
  -0.605461171197E-05  9  6  3  3
  -0.438082451098E-09  9  6  4  1
   0.106447228444E-07  9  6  4  2
   0.161023154176E-06  9  6  4  3
  -0.372788640631E-05  9  6  4  4
   0.231162398288E-10  9  6  5  1
  -0.489461188635E-09  9  6  5  2
  -0.634387655207E-08  9  6  5  3
   0.680298162626E-09  9  6  5  4
   0.646522204868E-05  9  6  5  5
   0.230052550756E-06  9  6  6  1
   0.158116326984E-05  9  6  6  2
   0.852068350010E-07  9  6  6  3
   0.445115619776E-08  9  6  6  4