 &FCI NORB= 26,NELEC= 8,MS2= 0,
  ORBSYM=1,1,1,1,1,1,2,2,2,3,3,3,4,5,5,5,5,5,5,6,6,6,7,7,7,8,
  ISYM=1
 /
  6.459689632703E-01   1   1   1   1
 -1.209778053490E-01   2   1   1   1
  6.680776457118E-02   2   1   2   1
  4.699723916526E-01   2   2   1   1
 -3.219564140647E-02   2   2   2   1
  4.492665364198E-01   2   2   2   2
  6.346202512035E-02   3   1   1   1
 -3.654096127581E-02   3   1   2   1
  3.168394359902E-02   3   1   2   2
  3.150924382860E-02   3   1   3   1
 -1.251619319065E-01   3   2   1   1
  3.899904874103E-02   3   2   2   1
 -7.178379956097E-02   3   2   2   2
 -2.109731150008E-02   3   2   3   1
  5.440640420498E-02   3   2   3   2
  3.950206000906E-01   3   3   1   1
 -3.514837211998E-02   3   3   2   1
  3.548046146625E-01   3   3   2   2
  2.294603528171E-02   3   3   3   1
 -4.401819575559E-02   3   3   3   2
  3.175535184435E-01   3   3   3   3
 -7.156640697728E-02   4   1   1   1
  1.733090316292E-02   4   1   2   1
 -5.758080319957E-02   4   1   2   2
 -1.848749243672E-02   4   1   3   1
  2.755046523148E-02   4   1   3   2
 -2.961864522197E-02   4   1   3   3
  2.645874270880E-02   4   1   4   1
 -3.342517978132E-02   4   2   1   1
 -1.500501887918E-02   4   2   2   1
 -5.966533016390E-02   4   2   2   2
  6.424997669156E-03   4   2   3   1
  1.935842886211E-02   4   2   3   2
 -2.281731186130E-02   4   2   3   3
  1.738381197059E-02   4   2   4   1
  3.819985655892E-02   4   2   4   2
 -3.637741189945E-02   4   3   1   1
  2.415773136302E-02   4   3   2   1
  1.272865951721E-02   4   3   2   2
 -1.570465525654E-03   4   3   3   1
  1.076668687193E-02   4   3   3   2
 -4.252952151675E-03   4   3   3   3
 -8.942787516016E-03   4   3   4   1
 -1.578464322184E-02   4   3   4   2
  3.041643970891E-02   4   3   4   3
  4.092083323883E-01   4   4   1   1
 -1.805107327325E-02   4   4   2   1
  3.793139407973E-01   4   4   2   2
  5.854347558233E-03   4   4   3   1
 -5.837443536436E-02   4   4   3   2
  3.205931855264E-01   4   4   3   3
 -3.269670745191E-02   4   4   4   1
 -4.695843301520E-02   4   4   4   2
 -4.698073866817E-03   4   4   4   3
  3.570658389393E-01   4   4   4   4
  2.628658974449E-19   5   1   1   1
  1.879842074653E-18   5   1   2   1
  1.527388135255E-19   5   1   2   2
 -1.272868110322E-18   5   1   3   1
  6.093849619426E-19   5   1   3   2
 -6.100079441231E-19   5   1   3   3
  2.029937172796E-18   5   1   4   1
 -7.582355646593E-19   5   1   4   2
  1.748646616100E-19   5   1   4   3
  1.218111545245E-18   5   1   4   4
  3.430533140916E-02   5   1   5   1
  6.402122240795E-18   5   2   1   1
 -1.440934642665E-18   5   2   2   1
  4.313569270579E-18   5   2   2   2
  9.662118387668E-19   5   2   3   1
 -2.458832101499E-18   5   2   3   2
  2.458110315416E-18   5   2   3   3
 -1.451491498284E-18   5   2   4   1
 -1.070988796514E-18   5   2   4   2
 -1.994395241796E-19   5   2   4   3
  3.181550582037E-18   5   2   4   4
  2.270835640167E-03   5   2   5   1
  8.015817823912E-03   5   2   5   2
 -5.568184976572E-19   5   3   1   1
 -8.251856799553E-20   5   3   2   1
 -1.342574549075E-18   5   3   2   2
 -8.449665605205E-19   5   3   3   1
 -3.709742120391E-21   5   3   3   2
 -2.643371829153E-19   5   3   3   3
  1.840646048027E-19   5   3   4   1
  3.550899671605E-19   5   3   4   2
 -1.156829262258E-18   5   3   4   3
 -2.563848727942E-19   5   3   4   4
 -1.293725825690E-02   5   3   5   1
 -2.489967722716E-03   5   3   5   2
  8.671402568515E-03   5   3   5   3
  7.207275690679E-18   5   4   1   1
 -2.119740149648E-18   5   4   2   1
  2.640949389092E-18   5   4   2   2
  6.524094289781E-19   5   4   3   1
 -1.595260996360E-18   5   4   3   2
  1.974204964431E-18   5   4   3   3
 -4.798766584094E-20   5   4   4   1
  2.074918080040E-19   5   4   4   2
 -1.248102440051E-18   5   4   4   3
  2.905194681738E-18   5   4   4   4
  8.679271128269E-03   5   4   5   1
  2.813378653923E-04   5   4   5   2
 -6.820973312507E-03   5   4   5   3
  1.021829217483E-02   5   4   5   4
  4.981214599181E-01   5   5   1   1
 -4.804775316963E-02   5   5   2   1
  3.991805059786E-01   5   5   2   2
  1.026406563841E-02   5   5   3   1
 -7.250820215038E-02   5   5   3   2
  3.443615515244E-01   5   5   3   3
 -3.272029744380E-02   5   5   4   1
 -3.346054174718E-02   5   5   4   2
 -2.777618565756E-02   5   5   4   3
  3.766454978211E-01   5   5   4   4
 -2.486361180281E-18   5   5   5   1
  3.405201340591E-18   5   5   5   2
  3.086634667739E-18   5   5   5   3
  3.914011096504E-18   5   5   5   4
  4.653081455648E-01   5   5   5   5
  3.369986423037E-02   6   1   1   1
 -2.800740674349E-02   6   1   2   1
  1.629421141939E-02   6   1   2   2
  2.119591459904E-02   6   1   3   1
 -1.144092366574E-02   6   1   3   2
  1.295139116162E-02   6   1   3   3
 -6.250561365790E-03   6   1   4   1
  6.011614017448E-03   6   1   4   2
 -7.171181950769E-03   6   1   4   3
  5.688011326291E-04   6   1   4   4
 -1.495668766473E-18   6   1   5   1
  5.145988384775E-19   6   1   5   2
 -2.770440366280E-19   6   1   5   3
 -2.444083104071E-21   6   1   5   4
 -4.030654651238E-03   6   1   5   5
  2.946062631842E-02   6   1   6   1
 -5.765738964137E-02   6   2   1   1
  3.887449028886E-02   6   2   2   1
  1.097714596403E-02   6   2   2   2
 -1.572415881587E-02   6   2   3   1
  2.055080937161E-02   6   2   3   2
 -7.455417840002E-03   6   2   3   3
  3.071325143564E-03   6   2   4   1
 -2.143588502044E-02   6   2   4   2
  2.092987344692E-02   6   2   4   3
  3.015546048543E-03   6   2   4   4
  9.644295806457E-19   6   2   5   1
 -3.569962037448E-19   6   2   5   2
 -5.929452253879E-19   6   2   5   3
 -1.675587313271E-18   6   2   5   4
 -2.757225065558E-02   6   2   5   5
 -6.923699020069E-03   6   2   6   1
  4.443376160104E-02   6   2   6   2
  6.608916396221E-02   6   3   1   1
 -2.083494572603E-02   6   3   2   1
  4.161164062789E-02   6   3   2   2
  1.615769266926E-02   6   3   3   1
 -1.656248943657E-02   6   3   3   2
  2.703353474311E-02   6   3   3   3
 -1.356113942443E-02   6   3   4   1
 -5.573785006859E-04   6   3   4   2
 -3.095089458705E-03   6   3   4   3
  2.203658646590E-02   6   3   4   4
 -4.523570280013E-19   6   3   5   1
  7.667202946729E-19   6   3   5   2
 -2.654808148460E-19   6   3   5   3
  1.227923003207E-18   6   3   5   4
  3.882037702244E-02   6   3   5   5
  8.582733229247E-03   6   3   6   1
 -1.073707764536E-02   6   3   6   2
  1.749239929726E-02   6   3   6   3
 -9.107577326031E-03   6   4   1   1
 -2.000164938019E-03   6   4   2   1
 -2.915355227546E-02   6   4   2   2
 -6.670571800696E-03   6   4   3   1
  3.904296073410E-03   6   4   3   2
 -1.008847261235E-02   6   4   3   3
  8.341620268580E-03   6   4   4   1
  1.143294535767E-02   6   4   4   2
 -1.159731076341E-02   6   4   4   3
 -1.038320559110E-02   6   4   4   4
 -6.604044619436E-19   6   4   5   1
 -7.979441043449E-19   6   4   5   2
  1.092057353939E-18   6   4   5   3
  2.137464431686E-19   6   4   5   4
 -6.661599119573E-04   6   4   5   5
 -8.150203644561E-03   6   4   6   1
 -1.296273164472E-02   6   4   6   2
 -4.067517380924E-03   6   4   6   3
  1.522543650502E-02   6   4   6   4
 -1.969401433399E-18   6   5   1   1
  9.766538259890E-19   6   5   2   1
  5.685117765375E-19   6   5   2   2
 -3.856622118893E-19   6   5   3   1
  2.688817206713E-19   6   5   3   2
 -5.693748119799E-20   6   5   3   3
 -7.195372961515E-19   6   5   4   1
 -1.021297107589E-18   6   5   4   2
  1.074415068202E-18   6   5   4   3
  2.042619601902E-19   6   5   4   4
 -1.262492987772E-02   6   5   5   1
 -6.111929101179E-03   6   5   5   2
  5.880084632140E-03   6   5   5   3
 -1.197571355839E-03   6   5   5   4
  7.089618615770E-19   6   5   5   5
 -1.900451332218E-19   6   5   6   1
  9.275567943326E-19   6   5   6   2
 -1.225085495487E-19   6   5   6   3
  1.977524432653E-19   6   5   6   4
  1.353761632219E-02   6   5   6   5
  4.753189726847E-01   6   6   1   1
 -3.677002545291E-02   6   6   2   1
  4.289232027220E-01   6   6   2   2
  2.408170007907E-02   6   6   3   1
 -6.945152274996E-02   6   6   3   2
  3.479964948046E-01   6   6   3   3
 -4.892837465544E-02   6   6   4   1
 -5.005134133530E-02   6   6   4   2
 -4.567172342978E-03   6   6   4   3
  3.747197344480E-01   6   6   4   4
  1.386318496521E-19   6   6   5   1
  3.987353367380E-18   6   6   5   2
 -1.493241106233E-19   6   6   5   3
  3.423550133953E-18   6   6   5   4
  4.147505599843E-01   6   6   5   5
  1.068227368304E-02   6   6   6   1
  2.742110762790E-03   6   6   6   2
  4.290634222109E-02   6   6   6   3
 -2.030134652374E-02   6   6   6   4
  3.054334538390E-19   6   6   6   5
  4.328304861157E-01   6   6   6   6
  5.256537326212E-01   7   7   1   1
 -6.121920505313E-02   7   7   2   1
  4.165631256191E-01   7   7   2   2
  2.306708217793E-02   7   7   3   1
 -8.668438646694E-02   7   7   3   2
  3.541203829644E-01   7   7   3   3
 -4.658913453671E-02   7   7   4   1
 -3.930980269611E-02   7   7   4   2
 -2.369716229055E-02   7   7   4   3
  3.851415532532E-01   7   7   4   4
  2.550448682205E-02   7   7   5   1
  2.858770639504E-03   7   7   5   2
 -1.000202766581E-02   7   7   5   3
  6.205181149380E-03   7   7   5   4
  4.546153926588E-01   7   7   5   5
  2.037931410777E-03   7   7   6   1
 -2.962729537351E-02   7   7   6   2
  4.217106759290E-02   7   7   6   3
 -2.049074020141E-03   7   7   6   4
 -1.022037666322E-02   7   7   6   5
  4.252698508437E-01   7   7   6   6
  4.873801516499E-01   7   7   7   7
 -1.308219076811E-01   8   7   1   1
  3.517353886294E-02   8   7   2   1
 -8.186118863741E-02   8   7   2   2
 -2.341937349760E-02   8   7   3   1
  4.259167523661E-02   8   7   3   2
 -5.064803465542E-02   8   7   3   3
  3.401924445373E-02   8   7   4   1
  2.002311370501E-02   8   7   4   2
 -2.916413769964E-03   8   7   4   3
 -5.450685122833E-02   8   7   4   4
 -4.449238609769E-03   8   7   5   1
  1.705049938646E-03   8   7   5   2
 -1.394680251731E-03   8   7   5   3
  4.940840848328E-03   8   7   5   4
 -7.546502666334E-02   8   7   5   5
 -3.990398653580E-03   8   7   6   1
  1.422123416450E-02   8   7   6   2
 -2.051538854572E-02   8   7   6   3
  4.752999383214E-03   8   7   6   4
  2.295601077614E-03   8   7   6   5
 -7.754450852141E-02   8   7   6   6
 -9.682515327202E-02   8   7   7   7
  6.353622766366E-02   8   7   8   7
  4.200070716711E-01   8   8   1   1
 -4.068577979990E-02   8   8   2   1
  3.499937348380E-01   8   8   2   2
  1.664190329757E-02   8   8   3   1
 -6.061868855813E-02   8   8   3   2
  3.100412622312E-01   8   8   3   3
 -3.091137809134E-02   8   8   4   1
 -2.526912673371E-02   8   8   4   2
 -1.856935053577E-02   8   8   4   3
  3.343730915083E-01   8   8   4   4
  1.488850843275E-02   8   8   5   1
  2.763321382272E-03   8   8   5   2
 -6.591017590414E-03   8   8   5   3
  5.925245685555E-03   8   8   5   4
  3.689871820956E-01   8   8   5   5
  2.980828273655E-03   8   8   6   1
 -1.835517796279E-02   8   8   6   2
  2.546927951937E-02   8   8   6   3
  1.291591343905E-03   8   8   6   4
 -5.211661014283E-03   8   8   6   5
  3.538812300667E-01   8   8   6   6
  3.955547496597E-01   8   8   7   7
 -5.845365255774E-02   8   8   8   7
  3.494269545210E-01   8   8   8   8
 -5.566979527799E-02   9   7   1   1
  4.171614087857E-02   9   7   2   1
  1.197745679372E-02   9   7   2   2
 -1.115955003869E-02   9   7   3   1
  1.148937895709E-02   9   7   3   2
 -9.164771420931E-03   9   7   3   3
 -5.928658229161E-03   9   7   4   1
 -1.983529955303E-02   9   7   4   2
  2.759730769882E-02   9   7   4   3
  2.360460914375E-03   9   7   4   4
 -7.533701631758E-03   9   7   5   1
  6.602184304437E-03   9   7   5   2
  2.441620024365E-03   9   7   5   3
 -4.905755095333E-03   9   7   5   4
 -2.663666388935E-02   9   7   5   5
 -1.762831265288E-02   9   7   6   1
  2.525808298625E-02   9   7   6   2
 -5.402123007230E-03   9   7   6   3
 -7.474920206521E-03   9   7   6   4
 -3.276796322540E-03   9   7   6   5
 -1.773121342021E-03   9   7   6   6
 -3.022374518817E-02   9   7   7   7
  7.316095300996E-03   9   7   8   7
 -1.623931065600E-02   9   7   8   8
  5.510147203528E-02   9   7   9   7
  2.130699376309E-02   9   8   1   1
 -1.555822046478E-02   9   8   2   1
  3.686300751930E-03   9   8   2   2
  1.012032713344E-02   9   8   3   1
 -7.055955898164E-05   9   8   3   2
  4.804380364541E-03   9   8   3   3
 -2.081233803710E-04   9   8   4   1
  1.046436437048E-02   9   8   4   2
 -4.678547079802E-03   9   8   4   3
 -5.226565360800E-03   9   8   4   4
  1.887815987146E-03   9   8   5   1
 -1.561655838314E-03   9   8   5   2
  1.361486576066E-03   9   8   5   3
  3.066087593450E-04   9   8   5   4
  7.034225369533E-03   9   8   5   5
  9.829177686916E-03   9   8   6   1
 -7.783795909102E-03   9   8   6   2
  6.444659438138E-03   9   8   6   3
 -2.386425035143E-03   9   8   6   4
  9.960448004703E-04   9   8   6   5
  4.359582701210E-03   9   8   6   6
  6.041360883264E-03   9   8   7   7
 -3.112561001439E-03   9   8   8   7
 -2.756956184603E-05   9   8   8   8
 -1.536625267319E-02   9   8   9   7
  1.273811554391E-02   9   8   9   8
  5.054190452908E-01   9   9   1   1
 -4.432424092971E-02   9   9   2   1
  4.379046455732E-01   9   9   2   2
  2.110343686891E-02   9   9   3   1
 -7.629145439430E-02   9   9   3   2
  3.554378787487E-01   9   9   3   3
 -4.769447790958E-02   9   9   4   1
 -5.064873883127E-02   9   9   4   2
 -9.491059374778E-03   9   9   4   3
  3.876922631674E-01   9   9   4   4
  2.275429897111E-02   9   9   5   1
  4.406264843365E-03   9   9   5   2
 -7.859724583293E-03   9   9   5   3
  4.389269341400E-03   9   9   5   4
  4.435188189486E-01   9   9   5   5
  1.031346676608E-02   9   9   6   1
 -1.068821390584E-02   9   9   6   2
  4.214079577504E-02   9   9   6   3
 -1.407992132803E-02   9   9   6   4
 -6.166666478719E-03   9   9   6   5
  4.327904381729E-01   9   9   6   6
  4.692557591633E-01   9   9   7   7
 -8.756916297198E-02   9   9   8   7
  3.783351943604E-01   9   9   8   8
 -1.496679907966E-02   9   9   9   7
  9.325212480341E-03   9   9   9   8
  4.863891936351E-01   9   9   9   9
  5.256537326212E-01  10  10   1   1
 -6.121920505313E-02  10  10   2   1
  4.165631256191E-01  10  10   2   2
  2.306708217793E-02  10  10   3   1
 -8.668438646694E-02  10  10   3   2
  3.541203829644E-01  10  10   3   3
 -4.658913453671E-02  10  10   4   1
 -3.930980269611E-02  10  10   4   2
 -2.369716229055E-02  10  10   4   3
  3.851415532532E-01  10  10   4   4
 -2.550448682205E-02  10  10   5   1
 -2.858770639504E-03  10  10   5   2
  1.000202766581E-02  10  10   5   3
 -6.205181149380E-03  10  10   5   4
  4.546153926588E-01  10  10   5   5
  2.037931410777E-03  10  10   6   1
 -2.962729537351E-02  10  10   6   2
  4.217106759290E-02  10  10   6   3
 -2.049074020142E-03  10  10   6   4
  1.022037666322E-02  10  10   6   5
  4.252698508437E-01  10  10   6   6
  4.474521635317E-01  10  10   7   7
 -8.991659444356E-02  10  10   8   7
  3.691791724222E-01  10  10   8   8
 -2.195289857643E-02  10  10   9   7
  5.291852179750E-03  10  10   9   8
  4.352139202856E-01  10  10   9   9
  4.873801516499E-01  10  10  10  10
 -1.308219076811E-01  11  10   1   1
  3.517353886294E-02  11  10   2   1
 -8.186118863741E-02  11  10   2   2
 -2.341937349760E-02  11  10   3   1
  4.259167523661E-02  11  10   3   2
 -5.064803465542E-02  11  10   3   3
  3.401924445373E-02  11  10   4   1
  2.002311370501E-02  11  10   4   2
 -2.916413769964E-03  11  10   4   3
 -5.450685122833E-02  11  10   4   4
  4.449238609769E-03  11  10   5   1
 -1.705049938646E-03  11  10   5   2
  1.394680251731E-03  11  10   5   3
 -4.940840848328E-03  11  10   5   4
 -7.546502666334E-02  11  10   5   5
 -3.990398653581E-03  11  10   6   1
  1.422123416450E-02  11  10   6   2
 -2.051538854572E-02  11  10   6   3
  4.752999383216E-03  11  10   6   4
 -2.295601077615E-03  11  10   6   5
 -7.754450852141E-02  11  10   6   6
 -8.991659444356E-02  11  10   7   7
  4.993671214813E-02  11  10   8   7
 -5.987994216821E-02  11  10   8   8
  6.701773368826E-03  11  10   9   7
 -1.924092363151E-03  11  10   9   8
 -8.213452583691E-02  11  10   9   9
 -9.682515327202E-02  11  10  10  10
  6.353622766366E-02  11  10  11  10
  4.200070716711E-01  11  11   1   1
 -4.068577979990E-02  11  11   2   1
  3.499937348380E-01  11  11   2   2
  1.664190329757E-02  11  11   3   1
 -6.061868855813E-02  11  11   3   2
  3.100412622312E-01  11  11   3   3
 -3.091137809134E-02  11  11   4   1
 -2.526912673371E-02  11  11   4   2
 -1.856935053577E-02  11  11   4   3
  3.343730915083E-01  11  11   4   4
 -1.488850843275E-02  11  11   5   1
 -2.763321382272E-03  11  11   5   2
  6.591017590414E-03  11  11   5   3
 -5.925245685554E-03  11  11   5   4
  3.689871820956E-01  11  11   5   5
  2.980828273655E-03  11  11   6   1
 -1.835517796279E-02  11  11   6   2
  2.546927951937E-02  11  11   6   3
  1.291591343904E-03  11  11   6   4
  5.211661014283E-03  11  11   6   5
  3.538812300667E-01  11  11   6   6
  3.691791724222E-01  11  11   7   7
 -5.987994216821E-02  11  11   8   7
  3.216723017903E-01  11  11   8   8
 -1.230687473758E-02  11  11   9   7
  1.455325381940E-03  11  11   9   8
  3.585043750221E-01  11  11   9   9
  3.955547496597E-01  11  11  10  10
 -5.845365255774E-02  11  11  11  10
  3.494269545210E-01  11  11  11  11
 -5.566979527799E-02  12  10   1   1
  4.171614087857E-02  12  10   2   1
  1.197745679372E-02  12  10   2   2
 -1.115955003869E-02  12  10   3   1
  1.148937895709E-02  12  10   3   2
 -9.164771420931E-03  12  10   3   3
 -5.928658229160E-03  12  10   4   1
 -1.983529955303E-02  12  10   4   2
  2.759730769882E-02  12  10   4   3
  2.360460914374E-03  12  10   4   4
  7.533701631758E-03  12  10   5   1
 -6.602184304437E-03  12  10   5   2
 -2.441620024365E-03  12  10   5   3
  4.905755095333E-03  12  10   5   4
 -2.663666388935E-02  12  10   5   5
 -1.762831265288E-02  12  10   6   1
  2.525808298625E-02  12  10   6   2
 -5.402123007230E-03  12  10   6   3
 -7.474920206522E-03  12  10   6   4
  3.276796322540E-03  12  10   6   5
 -1.773121342022E-03  12  10   6   6
 -2.195289857643E-02  12  10   7   7
  6.701773368827E-03  12  10   8   7
 -1.230687473758E-02  12  10   8   8
  3.655609551903E-02  12  10   9   7
 -1.095084864762E-02  12  10   9   8
 -9.623623761564E-03  12  10   9   9
 -3.022374518817E-02  12  10  10  10
  7.316095300996E-03  12  10  11  10
 -1.623931065600E-02  12  10  11  11
  5.510147203528E-02  12  10  12  10
  2.130699376309E-02  12  11   1   1
 -1.555822046478E-02  12  11   2   1
  3.686300751930E-03  12  11   2   2
  1.012032713344E-02  12  11   3   1
 -7.055955898157E-05  12  11   3   2
  4.804380364540E-03  12  11   3   3
 -2.081233803705E-04  12  11   4   1
  1.046436437048E-02  12  11   4   2
 -4.678547079803E-03  12  11   4   3
 -5.226565360803E-03  12  11   4   4
 -1.887815987146E-03  12  11   5   1
  1.561655838314E-03  12  11   5   2
 -1.361486576066E-03  12  11   5   3
 -3.066087593450E-04  12  11   5   4
  7.034225369533E-03  12  11   5   5
  9.829177686917E-03  12  11   6   1
 -7.783795909102E-03  12  11   6   2
  6.444659438138E-03  12  11   6   3
 -2.386425035144E-03  12  11   6   4
 -9.960448004703E-04  12  11   6   5
  4.359582701209E-03  12  11   6   6
  5.291852179749E-03  12  11   7   7
 -1.924092363151E-03  12  11   8   7
  1.455325381940E-03  12  11   8   8
 -1.095084864762E-02  12  11   9   7
  8.050827636803E-03  12  11   9   8
  6.367091907127E-03  12  11   9   9
  6.041360883264E-03  12  11  10  10
 -3.112561001439E-03  12  11  11  10
 -2.756956184592E-05  12  11  11  11
 -1.536625267319E-02  12  11  12  10
  1.273811554391E-02  12  11  12  11
  5.054190452908E-01  12  12   1   1
 -4.432424092971E-02  12  12   2   1
  4.379046455732E-01  12  12   2   2
  2.110343686891E-02  12  12   3   1
 -7.629145439430E-02  12  12   3   2
  3.554378787487E-01  12  12   3   3
 -4.769447790958E-02  12  12   4   1
 -5.064873883127E-02  12  12   4   2
 -9.491059374779E-03  12  12   4   3
  3.876922631674E-01  12  12   4   4
 -2.275429897111E-02  12  12   5   1
 -4.406264843365E-03  12  12   5   2
  7.859724583293E-03  12  12   5   3
 -4.389269341400E-03  12  12   5   4
  4.435188189486E-01  12  12   5   5
  1.031346676608E-02  12  12   6   1
 -1.068821390584E-02  12  12   6   2
  4.214079577504E-02  12  12   6   3
 -1.407992132803E-02  12  12   6   4
  6.166666478719E-03  12  12   6   5
  4.327904381729E-01  12  12   6   6
  4.352139202856E-01  12  12   7   7
 -8.213452583691E-02  12  12   8   7
  3.585043750221E-01  12  12   8   8
 -9.623623761564E-03  12  12   9   7
  6.367091907127E-03  12  12   9   8
  4.448791779927E-01  12  12   9   9
  4.692557591633E-01  12  12  10  10
 -8.756916297198E-02  12  12  11  10
  3.783351943604E-01  12  12  11  11
 -1.496679907966E-02  12  12  12  10
  9.325212480341E-03  12  12  12  11
  4.863891936351E-01  12  12  12  12
  4.981214599181E-01  13  13   1   1
 -4.804775316963E-02  13  13   2   1
  3.991805059786E-01  13  13   2   2
  1.026406563840E-02  13  13   3   1
 -7.250820215038E-02  13  13   3   2
  3.443615515244E-01  13  13   3   3
 -3.272029744380E-02  13  13   4   1
 -3.346054174718E-02  13  13   4   2
 -2.777618565756E-02  13  13   4   3
  3.766454978211E-01  13  13   4   4
 -2.700064185604E-19  13  13   5   1
  3.549554041080E-18  13  13   5   2
  1.606829743726E-18  13  13   5   3
  4.426716426319E-18  13  13   5   4
  4.458548604353E-01  13  13   5   5
 -4.030654651238E-03  13  13   6   1
 -2.757225065558E-02  13  13   6   2
  3.882037702244E-02  13  13   6   3
 -6.661599119558E-04  13  13   6   4
 -1.295558641726E-19  13  13   6   5
  4.147505599843E-01  13  13   6   6
  4.546153926588E-01  13  13   7   7
 -7.546502666334E-02  13  13   8   7
  3.689871820956E-01  13  13   8   8
 -2.663666388935E-02  13  13   9   7
  7.034225369533E-03  13  13   9   8
  4.435188189486E-01  13  13   9   9
  4.546153926588E-01  13  13  10  10
 -7.546502666334E-02  13  13  11  10
  3.689871820956E-01  13  13  11  11
 -2.663666388935E-02  13  13  12  10
  7.034225369533E-03  13  13  12  11
  4.435188189486E-01  13  13  12  12
  4.653081455648E-01  13  13  13  13
  4.391208921046E-01  14  14   1   1
 -4.831079813216E-03  14  14   2   1
  4.367724042532E-01  14  14   2   2
  9.606006659239E-03  14  14   3   1
 -6.236075914796E-02  14  14   3   2
  3.421380989109E-01  14  14   3   3
 -5.081233249346E-02  14  14   4   1
 -6.810715729906E-02  14  14   4   2
  1.658988439790E-02  14  14   4   3
  3.833029584940E-01  14  14   4   4
  1.308685650118E-18  14  14   5   1
  3.819452242367E-18  14  14   5   2
 -7.461313777575E-19  14  14   5   3
  2.485791603166E-18  14  14   5   4
  4.046112104596E-01  14  14   5   5
 -6.359019908834E-03  14  14   6   1
  1.887495716692E-02  14  14   6   2
  3.317692861719E-02  14  14   6   3
 -2.269885494958E-02  14  14   6   4
  9.610450833673E-19  14  14   6   5
  4.225220835053E-01  14  14   6   6
  4.149654228504E-01  14  14   7   7
 -7.442081681038E-02  14  14   8   7
  3.479717241272E-01  14  14   8   8
  2.698444121947E-02  14  14   9   7
 -5.720411733732E-03  14  14   9   8
  4.338672411321E-01  14  14   9   9
  4.149654228504E-01  14  14  10  10
 -7.442081681038E-02  14  14  11  10
  3.479717241272E-01  14  14  11  11
  2.698444121947E-02  14  14  12  10
 -5.720411733732E-03  14  14  12  11
  4.338672411321E-01  14  14  12  12
  4.046112104596E-01  14  14  13  13
  4.454986928545E-01  14  14  14  14
 -8.190873935869E-02  15  14   1   1
  1.507934932820E-02  15  14   2   1
 -4.797528072163E-02  15  14   2   2
 -2.465193359157E-03  15  14   3   1
  3.481043369097E-02  15  14   3   2
 -2.711611089875E-02  15  14   3   3
  1.593335967611E-02  15  14   4   1
  1.856293891885E-02  15  14   4   2
  8.003558703585E-03  15  14   4   3
 -4.764586395668E-02  15  14   4   4
 -2.437603126989E-19  15  14   5   1
 -1.614599613604E-18  15  14   5   2
 -4.607756200996E-19  15  14   5   3
 -1.312322852364E-18  15  14   5   4
 -6.344795551214E-02  15  14   5   5
  4.166197502410E-03  15  14   6   1
  1.123948587503E-02  15  14   6   2
 -8.308278637691E-03  15  14   6   3
 -1.344445150711E-03  15  14   6   4
  7.680553331344E-20  15  14   6   5
 -5.188156711675E-02  15  14   6   6
 -6.901585516086E-02  15  14   7   7
  2.841705867457E-02  15  14   8   7
 -4.656322895222E-02  15  14   8   8
  3.492402201366E-03  15  14   9   7
  3.970862265071E-03  15  14   9   8
 -5.994471862012E-02  15  14   9   9
 -6.901585516086E-02  15  14  10  10
  2.841705867457E-02  15  14  11  10
 -4.656322895222E-02  15  14  11  11
  3.492402201366E-03  15  14  12  10
  3.970862265071E-03  15  14  12  11
 -5.994471862012E-02  15  14  12  12
 -6.344795551214E-02  15  14  13  13
 -5.326676895574E-02  15  14  14  14
  2.955159379415E-02  15  14  15  14
  2.876850916937E-01  15  15   1   1
  7.479488206674E-05  15  15   2   1
  3.007309838608E-01  15  15   2   2
  9.984399795451E-03  15  15   3   1
 -1.002798385642E-03  15  15   3   2
  2.784647809865E-01  15  15   3   3
 -1.710667678105E-02  15  15   4   1
 -1.425955951721E-02  15  15   4   2
  1.927086520557E-02  15  15   4   3
  2.668756114762E-01  15  15   4   4
  3.707555064837E-19  15  15   5   1
  7.067678197039E-19  15  15   5   2
 -1.288933926514E-18  15  15   5   3
  7.400699429511E-19  15  15   5   4
  2.736341439572E-01  15  15   5   5
 -1.361653254727E-04  15  15   6   1
  1.133882061358E-02  15  15   6   2
  1.458200446259E-02  15  15   6   3
 -1.242356090955E-02  15  15   6   4
  4.336042566778E-19  15  15   6   5
  2.889212257028E-01  15  15   6   6
  2.765372872010E-01  15  15   7   7
 -2.650999474426E-02  15  15   8   7
  2.513239984319E-01  15  15   8   8
  1.091867373017E-02  15  15   9   7
  3.419535673385E-03  15  15   9   8
  2.883330904095E-01  15  15   9   9
  2.765372872010E-01  15  15  10  10
 -2.650999474426E-02  15  15  11  10
  2.513239984319E-01  15  15  11  11
  1.091867373017E-02  15  15  12  10
  3.419535673385E-03  15  15  12  11
  2.883330904095E-01  15  15  12  12
  2.736341439572E-01  15  15  13  13
  2.965830688741E-01  15  15  14  14
  9.690224863252E-04  15  15  15  14
  2.870687368940E-01  15  15  15  15
  6.654466218164E-03  16  14   1   1
  2.200531138172E-02  16  14   2   1
  6.178907374177E-02  16  14   2   2
 -1.557738961802E-03  16  14   3   1
 -1.050744967133E-02  16  14   3   2
  1.945932728561E-02  16  14   3   3
 -1.884574007031E-02  16  14   4   1
 -4.045641196422E-02  16  14   4   2
  2.661896625752E-02  16  14   4   3
  3.680702466092E-02  16  14   4   4
 -1.140772632078E-19  16  14   5   1
  9.122152515341E-19  16  14   5   2
 -9.054911259417E-19  16  14   5   3
 -1.325823753843E-18  16  14   5   4
  3.719390014615E-03  16  14   5   5
  3.045280342171E-03  16  14   6   1
  3.533210518666E-02  16  14   6   2
 -6.438747573823E-04  16  14   6   3
 -2.022882441439E-02  16  14   6   4
  1.466995320059E-18  16  14   6   5
  4.267362333267E-02  16  14   6   6
  1.211130174338E-02  16  14   7   7
 -1.285061408062E-02  16  14   8   7
  8.599461143029E-03  16  14   8   8
  2.852267299922E-02  16  14   9   7
 -9.613609344123E-03  16  14   9   8
  3.568310705969E-02  16  14   9   9
  1.211130174338E-02  16  14  10  10
 -1.285061408062E-02  16  14  11  10
  8.599461143030E-03  16  14  11  11
  2.852267299922E-02  16  14  12  10
 -9.613609344123E-03  16  14  12  11
  3.568310705969E-02  16  14  12  12
  3.719390014614E-03  16  14  13  13
  6.290083872204E-02  16  14  14  14
 -6.672278958601E-03  16  14  15  14
  2.066164954317E-02  16  14  15  15
  5.480098444824E-02  16  14  16  14
  4.434776365865E-02  16  15   1   1
 -1.733096111543E-02  16  15   2   1
  1.130772905628E-02  16  15   2   2
  5.118416136712E-03  16  15   3   1
 -1.086880912299E-02  16  15   3   2
  1.303748038168E-02  16  15   3   3
 -1.609227095915E-03  16  15   4   1
  5.623548929087E-03  16  15   4   2
 -1.396892608348E-02  16  15   4   3
  1.238295832857E-02  16  15   4   4
  1.757738603546E-19  16  15   5   1
  4.576222609275E-19  16  15   5   2
  3.620446897083E-19  16  15   5   3
  1.194834091425E-18  16  15   5   4
  3.223107546958E-02  16  15   5   5
  1.749161556529E-03  16  15   6   1
 -1.194834771238E-02  16  15   6   2
  7.466565701888E-03  16  15   6   3
  4.697155037324E-03  16  15   6   4
 -6.550265972986E-19  16  15   6   5
  2.076151835920E-02  16  15   6   6
  3.195381916972E-02  16  15   7   7
 -9.635840379533E-03  16  15   8   7
  2.105025925599E-02  16  15   8   8
 -1.395242823275E-02  16  15   9   7
  4.034359738426E-03  16  15   9   8
  2.272889351976E-02  16  15   9   9
  3.195381916972E-02  16  15  10  10
 -9.635840379533E-03  16  15  11  10
  2.105025925599E-02  16  15  11  11
 -1.395242823275E-02  16  15  12  10
  4.034359738426E-03  16  15  12  11
  2.272889351976E-02  16  15  12  12
  3.223107546959E-02  16  15  13  13
  9.001648718456E-03  16  15  14  14
 -8.335127741237E-03  16  15  15  14
 -9.245284387241E-04  16  15  15  15
 -1.289574672824E-02  16  15  16  14
  1.024935165988E-02  16  15  16  15
  4.839129326595E-01  16  16   1   1
 -3.209380786977E-02  16  16   2   1
  4.500958197744E-01  16  16   2   2
  2.234897734142E-02  16  16   3   1
 -8.527278182231E-02  16  16   3   2
  3.562086081821E-01  16  16   3   3
 -5.648858162330E-02  16  16   4   1
 -6.947682720792E-02  16  16   4   2
  6.151229835881E-03  16  16   4   3
  3.972970780373E-01  16  16   4   4
  1.709927316452E-18  16  16   5   1
  5.013573232040E-18  16  16   5   2
 -1.246188361133E-18  16  16   5   3
  3.351302857169E-18  16  16   5   4
  4.191916213896E-01  16  16   5   5
  6.827752910470E-03  16  16   6   1
  1.153002355863E-02  16  16   6   2
  3.531705750775E-02  16  16   6   3
 -2.654228974615E-02  16  16   6   4
  7.474640888076E-20  16  16   6   5
  4.360463425472E-01  16  16   6   6
  4.371893649877E-01  16  16   7   7
 -8.671242203831E-02  16  16   8   7
  3.663776607525E-01  16  16   8   8
  7.133356872451E-03  16  16   9   7
 -2.684492524697E-03  16  16   9   8
  4.444846428900E-01  16  16   9   9