 &FCI NORB= 10,NELEC= 14,MS2= 0,
  ORBSYM=1,1,1,2,3,5,5,5,6,7,
  ISYM=1,
 /
  0.2304820014656614E+01   1   1   1   1
 -0.1909289110706213E+00   2   1   1   1
  0.3068993065036920E-01   2   1   2   1
  0.7828621786688557E+00   2   2   1   1
  0.1846832912609953E-02   2   2   2   1
  0.7432653081201924E+00   2   2   2   2
  0.8356345577461249E-01   3   1   1   1
 -0.6631410467410139E-02   3   1   2   1
  0.2520027669271272E-01   3   1   2   2
  0.1424300614980977E-01   3   1   3   1
  0.6450851609523256E-01   3   2   1   1
  0.7185359498542882E-02   3   2   2   1
  0.1088090368418151E+00   3   2   2   2
  0.1236000289206954E-01   3   2   3   1
  0.5226979288844841E-01   3   2   3   2
  0.6841988420141322E+00   3   3   1   1
 -0.8901291578039358E-02   3   3   2   1
  0.5414549036145344E+00   3   3   2   2
 -0.2694323889206530E-02   3   3   3   1
  0.1591417482642574E-01   3   3   3   2
  0.5839683768835229E+00   3   3   3   3
  0.6863376634815251E+00   4   4   1   1
 -0.1597979016292661E-02   4   4   2   1
  0.6147758711772515E+00   4   4   2   2
  0.8855017180919793E-02   4   4   3   1
  0.4683407753390334E-01   4   4   3   2
  0.5170125178616196E+00   4   4   3   3
  0.5864068459192308E+00   4   4   4   4
  0.6863376634815251E+00   5   5   1   1
 -0.1597979016292661E-02   5   5   2   1
  0.6147758711772515E+00   5   5   2   2
  0.8855017180919793E-02   5   5   3   1
  0.4683407753390334E-01   5   5   3   2
  0.5170125178616196E+00   5   5   3   3
  0.5386756828673078E+00   5   5   4   4
  0.5864068459192308E+00   5   5   5   5
  0.2304229420044531E+01   6   6   1   1
 -0.1907797149539840E+00   6   6   2   1
  0.7829535244324719E+00   6   6   2   2
  0.8362079053423783E-01   6   6   3   1
  0.6457296046333388E-01   6   6   3   2
  0.6841320743409482E+00   6   6   3   3
  0.6863822362497182E+00   6   6   4   4
  0.6863822362497182E+00   6   6   5   5
  0.2303640406903259E+01   6   6   6   6
 -0.1919030158519392E+00   7   6   1   1
  0.2585080596501245E-01   7   6   2   1
 -0.1801276054042558E-01   7   6   2   2
 -0.1520470219465915E-01   7   6   3   1
 -0.4699483990779582E-02   7   6   3   2
 -0.3757003552491214E-02   7   6   3   3
 -0.7671316789689547E-02   7   6   4   4
 -0.7671316789689547E-02   7   6   5   5
 -0.1918435271455505E+00   7   6   6   6
  0.2900383103900926E-01   7   6   7   6
  0.6663520576767105E+00   7   7   1   1
 -0.1247192098157403E-01   7   7   2   1
  0.5110129127341627E+00   7   7   2   2
 -0.4142958922413453E-02   7   7   3   1
 -0.1470975390595569E-02   7   7   3   2
  0.5559247930886437E+00   7   7   3   3
  0.5093569267278331E+00   7   7   4   4
  0.5093569267278331E+00   7   7   5   5
  0.6662824656622575E+00   7   7   6   6
 -0.5000952017675489E-02   7   7   7   6
  0.5442420763943620E+00   7   7   7   7
 -0.1307388250586815E+00   8   6   1   1
  0.2770427163225336E-01   8   6   2   1
  0.2188157333863840E-01   8   6   2   2
  0.6054083695786756E-02   8   6   3   1
  0.1683552985586935E-01   8   6   3   2
 -0.1203100671645849E-01   8   6   3   3
  0.6323782651952582E-02   8   6   4   4
  0.6323782651952582E-02   8   6   5   5
 -0.1305107513064033E+00   8   6   6   6
  0.1433868106247571E-01   8   6   7   6
 -0.1610455314929012E-01   8   6   7   7
  0.3669557726685631E-01   8   6   8   6
  0.4986636551750902E-01   8   7   1   1
  0.2815526923793373E-02   8   7   2   1
  0.7396001427506677E-01   8   7   2   2
  0.1230302887540223E-01   8   7   3   1
  0.3047740681904350E-01   8   7   3   2
 -0.2704237885835382E-01   8   7   3   3
  0.4183597482951868E-01   8   7   4   4
  0.4183597482951868E-01   8   7   5   5
  0.4994615070174040E-01   8   7   6   6
 -0.7470612691509162E-02   8   7   7   6
 -0.1944927831203787E-01   8   7   7   7
  0.1376903223277940E-01   8   7   8   6
  0.4820713270877432E-01   8   7   8   7
  0.8924359230277611E+00   8   8   1   1
 -0.5481296327607466E-02   8   8   2   1
  0.7215238927006675E+00   8   8   2   2
  0.2281254727267797E-01   8   8   3   1
  0.8769568417783524E-01   8   8   3   2
  0.5931164604237413E+00   8   8   3   3
  0.6182273922152252E+00   8   8   4   4
  0.6182273922152252E+00   8   8   5   5
  0.8925133687072618E+00   8   8   6   6
 -0.2078850052536822E-01   8   8   7   6
  0.5583382579875387E+00   8   8   7   7
  0.1364988241184739E-01   8   8   8   6
  0.4643884038918247E-01   8   8   8   7
  0.7583693806250915E+00   8   8   8   8
  0.7258404696480856E+00   9   9   1   1
 -0.5916921497936906E-02   9   9   2   1
  0.5941694959571343E+00   9   9   2   2
  0.5348562336056496E-02   9   9   3   1
  0.2912236153802442E-01   9   9   3   2
  0.5394188430825804E+00   9   9   3   3
  0.5857984941431009E+00   9   9   4   4
  0.5401401998275283E+00   9   9   5   5
  0.7258680069922278E+00   9   9   6   6
 -0.7722209496692028E-02   9   9   7   6
  0.5348995920096349E+00   9   9   7   7
 -0.3056713652284659E-03   9   9   8   6
  0.2878394894794767E-01   9   9   8   7
  0.6196742591010370E+00   9   9   8   8
  0.6033450525934877E+00   9   9   9   9
  0.7258404696480856E+00  10  10   1   1
 -0.5916921497936906E-02  10  10   2   1
  0.5941694959571343E+00  10  10   2   2
  0.5348562336056496E-02  10  10   3   1
  0.2912236153802442E-01  10  10   3   2
  0.5394188430825804E+00  10  10   3   3
  0.5401401998275283E+00  10  10   4   4
  0.5857984941431009E+00  10  10   5   5
  0.7258680069922278E+00  10  10   6   6
 -0.7722209496692028E-02  10  10   7   6
  0.5348995920096349E+00  10  10   7   7
 -0.3056713652284659E-03  10  10   8   6
  0.2878394894794767E-01  10  10   8   7
  0.6196742591010370E+00  10  10   8   8
  0.5533354085188454E+00  10  10   9   9
  0.6033450525934877E+00  10  10  10  10
  0.9771493740463991E-02   4   1   4   1
  0.1652525850845794E-01   4   2   4   1
  0.1042954426086107E+00   4   2   4   2
 -0.4851030858905933E-02   4   3   4   1
 -0.1366953130953727E-01   4   3   4   2
  0.2802063267888799E-01   4   3   4   3
  0.1186102024597778E-01   9   6   4   1
  0.1874110052520271E-01   9   6   4   2
 -0.6183687852872438E-02   9   6   4   3
  0.1443016692422042E-01   9   6   9   6
  0.1560666867856713E-01   9   7   4   1
  0.7413579418452736E-01   9   7   4   2
 -0.3719100514704368E-01   9   7   4   3
  0.1849896621519012E-01   9   7   9   6
  0.8235768048079810E-01   9   7   9   7
  0.1100258198885443E-01   9   8   4   1
  0.6105083364950708E-01   9   8   4   2
  0.8013799923382329E-03   9   8   4   3
  0.1247489326161785E-01   9   8   9   6
  0.3576959986185931E-01   9   8   9   7
  0.4679957030631800E-01   9   8   9   8
  0.9771493740463991E-02   5   1   5   1
  0.1652525850845794E-01   5   2   5   1
  0.1042954426086107E+00   5   2   5   2
 -0.4851030858905933E-02   5   3   5   1
 -0.1366953130953727E-01   5   3   5   2
  0.2802063267888799E-01   5   3   5   3
  0.1186102024597778E-01  10   6   5   1
  0.1874110052520271E-01  10   6   5   2
 -0.6183687852872438E-02  10   6   5   3
  0.1443016692422042E-01  10   6  10   6
  0.1560666867856713E-01  10   7   5   1
  0.7413579418452736E-01  10   7   5   2
 -0.3719100514704368E-01  10   7   5   3
  0.1849896621519012E-01  10   7  10   6
  0.8235768048079810E-01  10   7  10   7
  0.1100258198885443E-01  10   8   5   1
  0.6105083364950708E-01  10   8   5   2
  0.8013799923382329E-03  10   8   5   3
  0.1247489326161785E-01  10   8  10   6
  0.3576959986185931E-01  10   8  10   7
  0.4679957030631800E-01  10   8  10   8
  0.2386558151522155E-01   5   4   5   4
  0.2282914714179323E-01  10   9   5   4
  0.2500482201064563E-01  10   9  10   9
  0.1827158407246817E+01   6   1   6   1
 -0.1975830835195247E+00   6   2   6   1
  0.3043793014031473E-01   6   2   6   2
  0.6883889652390696E-01   6   3   6   1
 -0.7070547363527197E-02   6   3   6   2
  0.1331510501193767E-01   6   3   6   3
 -0.1851981529060786E+00   7   1   6   1
  0.2603492332922855E-01   7   1   6   2
 -0.1479051964040585E-01   7   1   6   3
  0.2882058188469300E-01   7   1   7   1
  0.1743441882413040E+00   7   2   6   1
 -0.8267271944985119E-02   7   2   6   2
 -0.7523222440536624E-03   7   2   6   3
 -0.4882710602193537E-02   7   2   7   1
  0.5783900522586759E-01   7   2   7   2
 -0.2518943720116578E+00   7   3   6   1
  0.1368108489104589E-01   7   3   6   2
  0.1477663426893252E-01   7   3   6   3
 -0.2220509306175435E-02   7   3   7   1
 -0.9401973592260240E-01   7   3   7   2
  0.2222979498621340E+00   7   3   7   3
 -0.1488423446929748E+00   8   1   6   1
  0.2725198242754003E-01   8   1   6   2
  0.4988216170643760E-02   8   1   6   3
  0.1485424472918918E-01   8   1   7   1
 -0.8148042242111854E-02   8   1   7   2
  0.2611173300891224E-01   8   1   7   3
  0.3560984874048242E-01   8   1   8   1
  0.2253741357603971E+00   8   2   6   1
 -0.4844348137578234E-02   8   2   6   2
  0.1103147332562542E-01   8   2   6   3
 -0.1141550804160874E-01   8   2   7   1
  0.5965731213693659E-01   8   2   7   2
 -0.5569576782368148E-01   8   2   7   3
  0.6155213192723497E-02   8   2   8   1
  0.1065747257911506E+00   8   2   8   2
  0.1948088853785535E+00   8   3   6   1
 -0.6727214580300392E-02   8   3   6   2
 -0.3349044749911984E-02   8   3   6   3
 -0.1747426120686187E-02   8   3   7   1
  0.5621680875305807E-01   8   3   7   2
 -0.1247518627304857E+00   8   3   7   3
 -0.9443841671084183E-02   8   3   8   1
  0.5925464868725241E-01   8   3   8   2
  0.9290709872570310E-01   8   3   8   3
  0.2765803908358498E+00   9   4   6   1
 -0.8721244162961843E-02   9   4   6   2
 -0.3686693988394512E-02   9   4   6   3
 -0.2818580689546768E-02   9   4   7   1
  0.9810711555356688E-01   9   4   7   2
 -0.1572527130745268E+00   9   4   7   3
 -0.9841462446673443E-02   9   4   8   1
  0.1019889263584576E+00   9   4   8   2
  0.9334297749365492E-01   9   4   8   3
  0.1885761187406763E+00   9   4   9   4
  0.2765803908358498E+00  10   5   6   1
 -0.8721244162961843E-02  10   5   6   2
 -0.3686693988394512E-02  10   5   6   3
 -0.2818580689546768E-02  10   5   7   1
  0.9810711555356688E-01  10   5   7   2
 -0.1572527130745268E+00  10   5   7   3
 -0.9841462446673443E-02  10   5   8   1
  0.1019889263584576E+00  10   5   8   2
  0.9334297749365492E-01  10   5   8   3
  0.1505635237416477E+00  10   5   9   4
  0.1885761187406763E+00  10   5  10   5
  0.9288472166361774E-02   6   4   6   4
  0.1134357477487836E-01   7   4   6   4
  0.5119526318460980E-01   7   4   7   4
  0.8538361070131159E-02   8   4   6   4
  0.2374315009657169E-01   8   4   7   4
  0.3516795831563219E-01   8   4   8   4
  0.1129888799413044E-01   9   1   6   4
  0.1350412012674491E-01   9   1   7   4
  0.9802730948005326E-02   9   1   8   4
  0.1376145914848885E-01   9   1   9   1
  0.1147604973477545E-01   9   2   6   4
  0.4329183591847787E-01   9   2   7   4
  0.3390356225195106E-01   9   2   8   4
  0.1345485510237966E-01   9   2   9   1
  0.4455141546368712E-01   9   2   9   2
 -0.6997267519210336E-02   9   3   6   4
 -0.3899820113029733E-01   9   3   7   4
 -0.4077350311946809E-02   9   3   8   4
 -0.8545305005052756E-02   9   3   9   1
 -0.2494481182013161E-01   9   3   9   2
  0.3788587912127230E-01   9   3   9   3
  0.9288472166361774E-02   6   5   6   5
  0.1134357477487836E-01   7   5   6   5
  0.5119526318460980E-01   7   5   7   5
  0.8538361070131159E-02   8   5   6   5
  0.2374315009657169E-01   8   5   7   5
  0.3516795831563219E-01   8   5   8   5
  0.1129888799413044E-01  10   1   6   5
  0.1350412012674491E-01  10   1   7   5
  0.9802730948005326E-02  10   1   8   5
  0.1376145914848885E-01  10   1  10   1
  0.1147604973477545E-01  10   2   6   5
  0.4329183591847787E-01  10   2   7   5
  0.3390356225195106E-01  10   2   8   5
  0.1345485510237966E-01  10   2  10   1
  0.4455141546368712E-01  10   2  10   2
 -0.6997267519210336E-02  10   3   6   5
 -0.3899820113029733E-01  10   3   7   5
 -0.4077350311946809E-02  10   3   8   5
 -0.8545305005052756E-02  10   3  10   1
 -0.2494481182013161E-01  10   3  10   2
  0.3788587912127230E-01  10   3  10   3
  0.1900629747568536E-01   9   5   9   5
  0.1900629749730540E-01  10   4   9   5
  0.1900629747568536E-01  10   4  10   4
 -0.2751885601117497E+02   1   1   0   0
  0.4627245750376447E+00   2   1   0   0
 -0.9489992524435362E+01   2   2   0   0
 -0.2615437322196967E+00   3   1   0   0
 -0.7023412805124092E+00   3   2   0   0
 -0.7761577238750915E+01   3   3   0   0
 -0.8029584445846288E+01   4   4   0   0
 -0.8029584445846288E+01   5   5   0   0
 -0.2751800257440500E+02   6   6   0   0
  0.4988736651793215E+00   7   6   0   0
 -0.7664668045208748E+01   7   7   0   0
  0.2317716157384329E+00   8   6   0   0
 -0.4297702488862800E+00   8   7   0   0
 -0.8304216729070209E+01   8   8   0   0
 -0.7815996834814150E+01   9   9   0   0
 -0.7815996834814150E+01  10  10   0   0
  0.2336007499189189E+02   0   0   0   0
