 &FCI NORB= 28,NELEC= 14,MS2= 0,
  ORBSYM=1,1,1,1,1,1,1,2,2,2,3,3,3,4,5,5,5,5,5,5,5,6,6,6,7,7,7,8,
  ISYM=1,
 /
  0.2297872718826891E+01   1   1   1   1
 -0.1974125372781886E+00   2   1   1   1
  0.3555425002939644E-01   2   1   2   1
  0.8280231107618864E+00   2   2   1   1
  0.5305849472775376E-02   2   2   2   1
  0.8067411889932450E+00   2   2   2   2
  0.7247044639168232E-01   3   1   1   1
 -0.2720311221086382E-02   3   1   2   1
  0.3028236542084745E-01   3   1   2   2
  0.1766798667958264E-01   3   1   3   1
  0.9458245074429483E-01   3   2   1   1
  0.8850783131454909E-02   3   2   2   1
  0.1413423720256483E+00   3   2   2   2
  0.1626991856105608E-01   3   2   3   1
  0.6728985230210671E-01   3   2   3   2
  0.6920992453427481E+00   3   3   1   1
 -0.8211780164722763E-02   3   3   2   1
  0.5646065821007406E+00   3   3   2   2
 -0.1425956977369970E-02   3   3   3   1
  0.3218852968905707E-01   3   3   3   2
  0.5614060950320725E+00   3   3   3   3
  0.1093722034621093E-01   4   1   1   1
 -0.8244417190498857E-02   4   1   2   1
 -0.1814443436884239E-01   4   1   2   2
 -0.1040383083161186E-01   4   1   3   1
 -0.1148011794584122E-01   4   1   3   2
  0.2434905322392489E-02   4   1   3   3
  0.8994503454391218E-02   4   1   4   1
 -0.1027852249984042E+00   4   2   1   1
 -0.2574646374457659E-02   4   2   2   1
 -0.8798703636662619E-01   4   2   2   2
 -0.1062212948025815E-01   4   2   3   1
 -0.4045372017550557E-01   4   2   3   2
 -0.4542508295272606E-01   4   2   3   3
  0.7008971401257849E-02   4   2   4   1
  0.3949895746238697E-01   4   2   4   2
 -0.1663685988406227E+00   4   3   1   1
  0.6526043386346712E-03   4   3   2   1
 -0.1301448261696312E+00   4   3   2   2
 -0.7397631817324072E-02   4   3   3   1
 -0.3969421524425572E-01   4   3   3   2
 -0.6407417772271548E-01   4   3   3   3
  0.3960472608224973E-02   4   3   4   1
  0.2403308426633277E-01   4   3   4   2
  0.4753375216962730E-01   4   3   4   3
  0.4952068299250865E+00   4   4   1   1
  0.2202758416918029E-03   4   4   2   1
  0.4692685207738948E+00   4   4   2   2
  0.7622368777882910E-02   4   4   3   1
  0.3872075971772317E-01   4   4   3   2
  0.4129546422150133E+00   4   4   3   3
 -0.4418669680180017E-02   4   4   4   1
 -0.2604372844252628E-01   4   4   4   2
 -0.3824422286740092E-01   4   4   4   3
  0.3725477937554096E+00   4   4   4   4
  0.1634539502765418E+00   5   1   1   1
 -0.2177389173279172E-01   5   1   2   1
  0.1807077773722199E-01   5   1   2   2
  0.1490694590139066E-01   5   1   3   1
  0.6548259817342091E-02   5   1   3   2
  0.2443471853614347E-02   5   1   3   3
 -0.3289961894836151E-02   5   1   4   1
 -0.5844258610226413E-02   5   1   4   2
 -0.5269470054601834E-02   5   1   4   3
  0.5085941199739475E-02   5   1   4   4
  0.2351620734172746E-01   5   1   5   1
 -0.1386117170756213E+00   5   2   1   1
  0.3980391158892592E-02   5   2   2   1
 -0.8276296093979341E-01   5   2   2   2
 -0.4293718966796072E-02   5   2   3   1
 -0.2030007912420792E-01   5   2   3   2
 -0.6178508610638840E-01   5   2   3   3
  0.1498213051906248E-02   5   2   4   1
  0.2367939677668025E-01   5   2   4   2
  0.2305735552125354E-01   5   2   4   3
 -0.2634474901727296E-01   5   2   4   4
 -0.4947737991726840E-02   5   2   5   1
  0.2457367210395178E-01   5   2   5   2
  0.1568105743314822E+00   5   3   1   1
 -0.1072973574836208E-01   5   3   2   1
  0.5102474313395869E-01   5   3   2   2
 -0.9356558285043871E-02   5   3   3   1
 -0.1190564205060269E-01   5   3   3   2
  0.9247125705213281E-01   5   3   3   3
  0.7934241864055103E-02   5   3   4   1
 -0.1699677848421448E-02   5   3   4   2
 -0.1939276790932022E-01   5   3   4   3
  0.2566033978439447E-01   5   3   4   4
 -0.1379763965329191E-02   5   3   5   1
 -0.2059071860064822E-01   5   3   5   2
  0.5461127247444458E-01   5   3   5   3
  0.8916285501643592E-02   5   4   1   1
  0.5430470825389627E-02   5   4   2   1
  0.6142965063382710E-01   5   4   2   2
  0.6805810609799942E-02   5   4   3   1
  0.2288951753227659E-01   5   4   3   2
 -0.1452088431045228E-02   5   4   3   3
 -0.5032513907646823E-02   5   4   4   1
  0.1627149893124930E-02   5   4   4   2
 -0.2132135109790343E-01   5   4   4   3
  0.1727206445658822E-01   5   4   4   4
  0.2042104206031835E-02   5   4   5   1
  0.3156158326695767E-02   5   4   5   2
 -0.9554229639047708E-02   5   4   5   3
  0.3499407398119946E-01   5   4   5   4
  0.5720104948643691E+00   5   5   1   1
 -0.9473468210356654E-02   5   5   2   1
  0.4683219805358278E+00   5   5   2   2
 -0.2674098828427182E-02   5   5   3   1
  0.1464667891427384E-01   5   5   3   2
  0.4567354082457006E+00   5   5   3   3
  0.3969019757525130E-02   5   5   4   1
 -0.1497760773717216E-01   5   5   4   2
 -0.4637038380543368E-01   5   5   4   3
  0.3704625236476902E+00   5   5   4   4
  0.2708201421732198E-02   5   5   5   1
 -0.3400420170325558E-01   5   5   5   2
  0.6211773381984476E-01   5   5   5   3
  0.1092905360667451E-01   5   5   5   4
  0.4067011643746152E+00   5   5   5   5
  0.2323337889671559E-16   6   1   1   1
 -0.2411875697403017E-17   6   1   2   1
  0.3486878231150008E-17   6   1   2   2
  0.3779229916212703E-17   6   1   3   1
  0.1289260320353890E-17   6   1   3   2
 -0.1444743437055746E-17   6   1   3   3
 -0.1728207295423058E-17   6   1   4   1
 -0.7796972489182510E-18   6   1   4   2
 -0.5409131378803532E-18   6   1   4   3
  0.5315133826124546E-18   6   1   4   4
  0.4172450045355390E-17   6   1   5   1
 -0.1086133866047249E-17   6   1   5   2
 -0.1402271931622730E-17   6   1   5   3
  0.9007383909758309E-18   6   1   5   4
 -0.3600468258623777E-18   6   1   5   5
  0.4190290948167902E-03   6   1   6   1
 -0.2963452312333091E-16   6   2   1   1
 -0.1259235194924249E-17   6   2   2   1
 -0.3743728835086770E-16   6   2   2   2
 -0.3482800852776971E-17   6   2   3   1
 -0.1856262876180400E-16   6   2   3   2
 -0.1835953010927159E-16   6   2   3   3
  0.2416001678087094E-17   6   2   4   1
  0.1397977115191857E-16   6   2   4   2
  0.1055830858864713E-16   6   2   4   3
 -0.1267677191530558E-16   6   2   4   4
 -0.1953128876183836E-17   6   2   5   1
  0.8571540846412219E-18   6   2   5   2
  0.6136903421589516E-18   6   2   5   3
 -0.6052662461966457E-17   6   2   5   4
 -0.9276219287443209E-17   6   2   5   5
  0.2172476905517521E-02   6   2   6   1
  0.3776962756502766E-01   6   2   6   2
  0.2128568397760470E-16   6   3   1   1
 -0.4749121042873738E-17   6   3   2   1
 -0.1937379672052901E-16   6   3   2   2
 -0.5839264687859460E-17   6   3   3   1
 -0.1635496344640710E-16   6   3   3   2
  0.2204838352253299E-16   6   3   3   3
  0.4399015423508100E-17   6   3   4   1
  0.5693666226132931E-17   6   3   4   2
  0.5668912840705731E-17   6   3   4   3
  0.3549871162426790E-18   6   3   4   4
 -0.1616815122982042E-17   6   3   5   1
  0.7205165958863687E-19   6   3   5   2
  0.1594001891085799E-16   6   3   5   3
 -0.8994818985560979E-17   6   3   5   4
  0.1343223218887060E-16   6   3   5   5
 -0.7118934553250997E-03   6   3   6   1
 -0.7304536169267971E-02   6   3   6   2
  0.1197498701329520E-01   6   3   6   3
  0.1462301440879432E-16   6   4   1   1
  0.2306672309611559E-17   6   4   2   1
  0.3192399575940630E-16   6   4   2   2
  0.2696842523645406E-17   6   4   3   1
  0.1044092199703257E-16   6   4   3   2
  0.1342913892403719E-16   6   4   3   3
 -0.2144753478460719E-17   6   4   4   1
 -0.6414366107914613E-17   6   4   4   2
 -0.7056748427941113E-17   6   4   4   3
  0.1055071414270502E-16   6   4   4   4
  0.5719982802609742E-18   6   4   5   1
 -0.6598342622708153E-17   6   4   5   2
 -0.1647158302859704E-18   6   4   5   3
  0.3906413436418564E-17   6   4   5   4
  0.5324238377712411E-17   6   4   5   5
  0.5336392932474959E-03   6   4   6   1
  0.1536613099331833E-01   6   4   6   2
 -0.4324429718122493E-02   6   4   6   3
  0.1124756885156327E-01   6   4   6   4
  0.1346184799434549E-17   6   5   1   1
 -0.2837613942041890E-17   6   5   2   1
 -0.2142584564077143E-16   6   5   2   2
 -0.2670323176057967E-17   6   5   3   1
 -0.5548148458116285E-17   6   5   3   2
  0.4017605048868056E-17   6   5   3   3
  0.2059392072121000E-17   6   5   4   1
 -0.2385305927371269E-17   6   5   4   2
  0.4046373341854919E-17   6   5   4   3
 -0.6044378125567082E-17   6   5   4   4
 -0.4507945015077280E-18   6   5   5   1
 -0.1934820117247897E-17   6   5   5   2
  0.6777914514023314E-17   6   5   5   3
 -0.1053271647587440E-16   6   5   5   4
 -0.4759111110743582E-17   6   5   5   5
 -0.4906125945785086E-03   6   5   6   1
  0.5964706181984733E-02   6   5   6   2
 -0.4452639236190792E-03   6   5   6   3
  0.6622789138377977E-02   6   5   6   4
  0.8915702990807803E-02   6   5   6   5
  0.5954828184632321E+00   6   6   1   1
  0.2865619377864581E-02   6   6   2   1
  0.5954407519222028E+00   6   6   2   2
  0.6664831505425776E-02   6   6   3   1
  0.4573758596476687E-01   6   6   3   2
  0.4863215978294196E+00   6   6   3   3
 -0.3926176721323282E-02   6   6   4   1
 -0.1727579949556601E-01   6   6   4   2
 -0.7059511353710973E-01   6   6   4   3
  0.4096257557644474E+00   6   6   4   4
  0.3122202341332925E-02   6   6   5   1
 -0.3938229673791471E-01   6   6   5   2
  0.4970576379867786E-01   6   6   5   3
  0.4259620330781777E-01   6   6   5   4
  0.4331093183457426E+00   6   6   5   5
  0.1686397289764967E-17   6   6   6   1
  0.2229529798801790E-17   6   6   6   2
 -0.9622998541010925E-17   6   6   6   3
  0.2342220443827760E-16   6   6   6   4
 -0.1962384374854380E-16   6   6   6   5
  0.5510262521418154E+00   6   6   6   6
  0.3214310631279034E-01   7   1   1   1
 -0.7888737396365171E-02   7   1   2   1
 -0.3129097589620642E-02   7   1   2   2
 -0.4090817815983500E-02   7   1   3   1
 -0.2127981263925217E-02   7   1   3   2
  0.5848854240257551E-02   7   1   3   3
  0.4854603208895914E-02   7   1   4   1
  0.8413089586678784E-04   7   1   4   2
 -0.5968509384509622E-03   7   1   4   3
  0.4443699567371617E-03   7   1   4   4
  0.1221456689783034E-02   7   1   5   1
 -0.5527258575715108E-03   7   1   5   2
  0.5043720026892945E-02   7   1   5   3
 -0.2622604549731297E-02   7   1   5   4
  0.3743233238929396E-02   7   1   5   5
 -0.6401132310569801E-18   7   1   6   1
  0.4282369267203172E-18   7   1   6   2
  0.2240547847960109E-17   7   1   6   3
 -0.5259101663725665E-18   7   1   6   4
  0.2008527947750558E-17   7   1   6   5
 -0.2543076050005419E-02   7   1   6   6
  0.4146863260107604E-02   7   1   7   1
 -0.1611855765616270E-01   7   2   1   1
  0.6219828496118026E-02   7   2   2   1
  0.5043660066394186E-01   7   2   2   2
  0.5772267898131169E-02   7   2   3   1
  0.3599097975585604E-01   7   2   3   2
  0.1082724974216838E-01   7   2   3   3
 -0.5151015127563619E-02   7   2   4   1
 -0.2328325926903905E-01   7   2   4   2
 -0.1213698374435307E-01   7   2   4   3
  0.1512533090594018E-01   7   2   4   4
  0.3645028051360855E-03   7   2   5   1
 -0.5306920764417015E-02   7   2   5   2
 -0.1018803144819360E-01   7   2   5   3
  0.9832441659696448E-02   7   2   5   4
 -0.2629118480008102E-02   7   2   5   5
  0.2943005226689770E-18   7   2   6   1
 -0.1387727104286082E-17   7   2   6   2
 -0.9182505147901008E-17   7   2   6   3
  0.1186086849538625E-16   7   2   6   4
  0.5191989382785706E-17   7   2   6   5
 -0.3402251041851987E-02   7   2   6   6
  0.9336632280109798E-03   7   2   7   1
  0.3931992092591222E-01   7   2   7   2
  0.7404643094945327E-02   7   3   1   1
  0.8082579856161421E-02   7   3   2   1
  0.7270605129834681E-01   7   3   2   2
  0.1127391125581430E-01   7   3   3   1
  0.3809616337379768E-01   7   3   3   2
 -0.2152139859224438E-01   7   3   3   3
 -0.8069955311810949E-02   7   3   4   1
 -0.1387883444344838E-01   7   3   4   2
 -0.2472130424988149E-01   7   3   4   3
  0.9564301802143294E-02   7   3   4   4
  0.3824473255381222E-02   7   3   5   1
 -0.4916740329257083E-02   7   3   5   2
 -0.2597643924173641E-01   7   3   5   3
  0.2292865379118404E-01   7   3   5   4
 -0.9055316656668255E-02   7   3   5   5
  0.1593079057636111E-17   7   3   6   1
 -0.8665690171882888E-17   7   3   6   2
 -0.1886115850507078E-16   7   3   6   3
  0.4401582273093188E-17   7   3   6   4
 -0.1301335408062143E-16   7   3   6   5
  0.3337476801251866E-01   7   3   6   6
 -0.4855945258974845E-02   7   3   7   1
  0.1137073522806920E-01   7   3   7   2
  0.5505018576862695E-01   7   3   7   3
 -0.3977812323010970E-01   7   4   1   1
 -0.3909259481121144E-02   7   4   2   1
 -0.6398980981135494E-01   7   4   2   2
 -0.3461692653274742E-02   7   4   3   1
 -0.1652865696709718E-01   7   4   3   2
 -0.4587702712028209E-01   7   4   3   3
  0.3143810056197292E-02   7   4   4   1
  0.1737509257519121E-01   7   4   4   2
  0.1008105895992537E-01   7   4   4   3
 -0.2547709471824322E-01   7   4   4   4
 -0.1989045519971300E-03   7   4   5   1
  0.1309893112086485E-01   7   4   5   2
 -0.4189032162475861E-02   7   4   5   3
 -0.1514296761205014E-03   7   4   5   4
 -0.2185546888232759E-01   7   4   5   5
  0.1056997640208430E-18   7   4   6   1
  0.1307752946787683E-16   7   4   6   2
 -0.2385125303785758E-18   7   4   6   3
 -0.1393505923087806E-17   7   4   6   4
  0.3389242362268623E-17   7   4   6   5
 -0.3669205234882153E-01   7   4   6   6
  0.8767998850731928E-03   7   4   7   1
 -0.1073528386068681E-01   7   4   7   2
 -0.5686344676261189E-02   7   4   7   3
  0.1791901990791162E-01   7   4   7   4
 -0.1189864582616684E-01   7   5   1   1
  0.1836994673077287E-02   7   5   2   1
 -0.6899847250164449E-04   7   5   2   2
  0.3657250388553328E-02   7   5   3   1
  0.1890494388937175E-02   7   5   3   2
 -0.2895791508271539E-01   7   5   3   3
 -0.2225676565293187E-02   7   5   4   1
  0.7600432031264807E-02   7   5   4   2
 -0.8232682132317636E-03   7   5   4   3
 -0.3723098445912462E-02   7   5   4   4
  0.1959888950137810E-02   7   5   5   1
  0.5298945683931295E-02   7   5   5   2
 -0.1371027845275570E-01   7   5   5   3
  0.1193316368113806E-01   7   5   5   4
 -0.1043357785542912E-01   7   5   5   5
  0.1417442601560188E-17   7   5   6   1
  0.8782629436971464E-17   7   5   6   2
 -0.1008727733555844E-16   7   5   6   3
  0.4005852307434505E-17   7   5   6   4
 -0.4705515549578590E-17   7   5   6   5
  0.5313322916353604E-02   7   5   6   6
 -0.3379549742134816E-02   7   5   7   1
 -0.7760354763304978E-02   7   5   7   2
  0.1739470186426096E-01   7   5   7   3
  0.5414005548989851E-02   7   5   7   4
  0.1667256928780356E-01   7   5   7   5
  0.2235924622547847E-16   7   6   1   1
  0.1365486904274386E-17   7   6   2   1
  0.3639874723037852E-16   7   6   2   2
  0.1898328519015020E-17   7   6   3   1
  0.1943005919570945E-17   7   6   3   2
  0.1029167564411829E-16   7   6   3   3
 -0.1123165041310205E-17   7   6   4   1
  0.8749508942515276E-17   7   6   4   2
 -0.5501964095681303E-17   7   6   4   3
  0.2321031658952549E-16   7   6   4   4
  0.1084306990722676E-17   7   6   5   1
  0.6838717975331257E-17   7   6   5   2
 -0.7949150966599603E-17   7   6   5   3
  0.1285555301115458E-16   7   6   5   4
  0.2207415899398159E-16   7   6   5   5
 -0.1316430354742684E-02   7   6   6   1
 -0.1458107282402971E-01   7   6   6   2
  0.1001134296283367E-01   7   6   6   3
 -0.6665686805389400E-02   7   6   6   4
  0.2031424109038437E-03   7   6   6   5
  0.3907216071090352E-16   7   6   6   6
 -0.2564817143454240E-17   7   6   7   1
 -0.1332738755219586E-16   7   6   7   2
  0.1943960931752015E-16   7   6   7   3
  0.2830123179456095E-18   7   6   7   4
  0.7430968191398647E-17   7   6   7   5
  0.1728149843270078E-01   7   6   7   6
  0.6361220362473365E+00   7   7   1   1
 -0.8056658430688492E-03   7   7   2   1
  0.5885770931196445E+00   7   7   2   2
  0.3413849988651500E-02   7   7   3   1
  0.4618650691888179E-01   7   7   3   2
  0.5311077539830047E+00   7   7   3   3
 -0.1730308344562045E-02   7   7   4   1
 -0.4040073172845243E-01   7   7   4   2
 -0.6673771741643392E-01   7   7   4   3
  0.4144313297458395E+00   7   7   4   4
  0.2214705681865076E-02   7   7   5   1
 -0.5561944991348489E-01   7   7   5   2
  0.7148110264727825E-01   7   7   5   3
  0.2046639348444701E-01   7   7   5   4
  0.4427429575171313E+00   7   7   5   5
 -0.1326046421810170E-17   7   7   6   1
 -0.2901349077749604E-16   7   7   6   2
  0.1890115524118711E-16   7   7   6   3
  0.1312836234589563E-16   7   7   6   4
 -0.5438839578755310E-17   7   7   6   5
  0.5051318185219776E+00   7   7   6   6
  0.1643468678969084E-02   7   7   7   1
  0.1383660208690829E-01   7   7   7   2
 -0.1271317619261969E-02   7   7   7   3
 -0.4889294159223845E-01   7   7   7   4
 -0.1691566092911856E-01   7   7   7   5
  0.3089264271439974E-16   7   7   7   6
  0.5355931684579054E+00   7   7   7   7
  0.6790799561005499E+00   8   8   1   1
 -0.1485195181551505E-03   8   8   2   1
  0.6255144092995197E+00   8   8   2   2
  0.1034959983500178E-01   8   8   3   1
  0.6119879145460086E-01   8   8   3   2
  0.5013777682743007E+00   8   8   3   3
 -0.5226563684711277E-02   8   8   4   1
 -0.3260484078264769E-01   8   8   4   2
 -0.8308978803656139E-01   8   8   4   3
  0.4161942657861348E+00   8   8   4   4
  0.7266989690952602E-02   8   8   5   1
 -0.5145236073050963E-01   8   8   5   2
  0.5718618453071678E-01   8   8   5   3
  0.4125962679427819E-01   8   8   5   4
  0.4408311304056545E+00   8   8   5   5
  0.2102232917165769E-02   8   8   6   1
  0.2845544821136695E-01   8   8   6   2
 -0.7522377247238106E-02   8   8   6   3
  0.1211110358926167E-01   8   8   6   4
  0.4319409045369931E-02   8   8   6   5
  0.5357435403586096E+00   8   8   6   6
 -0.2272695137761210E-02   8   8   7   1
  0.3256080646268922E-02   8   8   7   2
  0.3401719945556855E-01   8   8   7   3
 -0.3760774166693803E-01   8   8   7   4
  0.4738578865105092E-02   8   8   7   5
 -0.1239038122248096E-01   8   8   7   6
  0.5146306294979150E+00   8   8   7   7
  0.5697807128216460E+00   8   8   8   8
 -0.2365387588370331E+00   9   8   1   1
  0.3171692309785785E-02   9   8   2   1
 -0.1570635006412946E+00   9   8   2   2
 -0.6827165584323105E-02   9   8   3   1
 -0.3574023751225121E-01   9   8   3   2
 -0.1025398818157311E+00   9   8   3   3
  0.2818171809708839E-02   9   8   4   1
  0.3173254060317021E-01   9   8   4   2
  0.4035356671947071E-01   9   8   4   3
 -0.5306400733634237E-01   9   8   4   4
 -0.6399618497707801E-02   9   8   5   1
  0.3734118228346536E-01   9   8   5   2
 -0.3255800596811323E-01   9   8   5   3
 -0.1260718318143256E-02   9   8   5   4
 -0.6370498184496864E-01   9   8   5   5
 -0.1271698033060179E-02   9   8   6   1
 -0.4991409439594749E-02   9   8   6   2
 -0.8603209523201719E-03   9   8   6   3
  0.2003103217550373E-02   9   8   6   4
  0.5919594931865963E-02   9   8   6   5
 -0.9020766908287917E-01   9   8   6   6
  0.7892254187710293E-03   9   8   7   1
 -0.2093301662837305E-02   9   8   7   2
 -0.1369919996384768E-01   9   8   7   3
  0.1879200491407804E-01   9   8   7   4
  0.2381500816231397E-02   9   8   7   5
  0.3155974831633397E-02   9   8   7   6
 -0.9946741707697804E-01   9   8   7   7
 -0.1123056323361585E+00   9   8   8   8
  0.7612278821989366E-01   9   8   9   8
  0.5902665447811949E+00   9   9   1   1
 -0.3773567603107897E-02   9   9   2   1
  0.5076624091264186E+00   9   9   2   2
  0.8352706447443486E-02   9   9   3   1
  0.4149182668813794E-01   9   9   3   2
  0.4279732658395079E+00   9   9   3   3
 -0.3374602256729739E-02   9   9   4   1
 -0.2445149095992760E-01   9   9   4   2
 -0.6086198332806390E-01   9   9   4   3
  0.3692823980637341E+00   9   9   4   4
  0.7925831696807800E-02   9   9   5   1
 -0.3600019984496117E-01   9   9   5   2
  0.4063771183939224E-01   9   9   5   3
  0.3099516076622177E-01   9   9   5   4
  0.3905762947818339E+00   9   9   5   5
  0.1586931056359059E-02   9   9   6   1
  0.1674598917731634E-01   9   9   6   2
 -0.5718569309538480E-02   9   9   6   3
  0.8013133581902655E-02   9   9   6   4
  0.4651170671561227E-02   9   9   6   5
  0.4416102834543016E+00   9   9   6   6
 -0.1115509703357054E-02   9   9   7   1
  0.1712226855617782E-02   9   9   7   2
  0.2003469645242148E-01   9   9   7   3
 -0.2212564385372695E-01   9   9   7   4
  0.5454885908748208E-02   9   9   7   5
 -0.6917334711048332E-02   9   9   7   6
  0.4330369296137326E+00   9   9   7   7
  0.4717689026505557E+00   9   9   8   8
 -0.7252905619106242E-01   9   9   9   8
  0.4215809467896611E+00   9   9   9   9
 -0.1437938649888552E-01  10   8   1   1
  0.8917412584429933E-02  10   8   2   1
  0.7958782489725288E-01  10   8   2   2
  0.1105610862585305E-01  10   8   3   1
  0.4533196522540228E-01  10   8   3   2
 -0.1911428326310138E-01  10   8   3   3
 -0.8235593978359273E-02  10   8   4   1
 -0.9520817858196966E-02  10   8   4   2
 -0.1809366462631085E-01  10   8   4   3
  0.1841691959903985E-01  10   8   4   4
  0.3145291432159334E-02  10   8   5   1
  0.2395058836012043E-02  10   8   5   2
 -0.2420827502610522E-01  10   8   5   3
  0.2971671913559584E-01  10   8   5   4
 -0.7377676440741721E-02  10   8   5   5
 -0.2119069235092940E-03  10   8   6   1
  0.8717186698252836E-02  10   8   6   2
  0.7256214598527030E-02  10   8   6   3
  0.3918034050236967E-02  10   8   6   4
  0.4586556702824149E-02  10   8   6   5
  0.2997637513906627E-01  10   8   6   6
 -0.2827394501195304E-02  10   8   7   1
  0.2582867950510680E-01  10   8   7   2
  0.3116543665687564E-01  10   8   7   3
 -0.2763581055155548E-02  10   8   7   4
  0.9273220985222388E-02  10   8   7   5
  0.4125335346024930E-02  10   8   7   6
  0.7664271673260448E-02  10   8   7   7
  0.3699525503669698E-01  10   8   8   8
 -0.7331422432135842E-02  10   8   9   8
  0.1860298848493448E-01  10   8   9   9
  0.6646618961083370E-01  10   8  10   8
  0.3512121894141477E-01  10   9   1   1
 -0.6181464051924045E-02  10   9   2   1
 -0.2495973869037232E-01  10   9   2   2
 -0.5163308272975216E-02  10   9   3   1
 -0.1747275892132201E-01  10   9   3   2
  0.4583329578162252E-02  10   9   3   3
  0.4605974498593419E-02  10   9   4   1
  0.9867785238388445E-02  10   9   4   2
  0.2446562239654115E-03  10   9   4   3
 -0.4842032491198724E-02  10   9   4   4
 -0.3426203632638600E-03  10   9   5   1
  0.7545020851892383E-04  10   9   5   2
  0.1508359814041038E-01  10   9   5   3
 -0.3762790553112768E-02  10   9   5   4
  0.8880519764651679E-02  10   9   5   5
  0.2953379693307454E-03  10   9   6   1
 -0.1928275641027084E-02  10   9   6   2
 -0.1980075063616842E-02  10   9   6   3
  0.1315101488414583E-02  10   9   6   4
 -0.7742578853991688E-03  10   9   6   5
 -0.4261551140310268E-02  10   9   6   6
  0.1424392727675913E-02  10   9   7   1
 -0.1339132259474528E-01  10   9   7   2
 -0.1015759474665974E-01  10   9   7   3
  0.6371515817302803E-02  10   9   7   4
  0.1201741025249104E-02  10   9   7   5
 -0.1405906464411413E-02  10   9   7   6
 -0.2170530261775480E-02  10   9   7   7
 -0.2863978291626693E-02  10   9   8   8
  0.4417265281627954E-03  10   9   9   8
  0.3313199630898647E-02  10   9   9   9
 -0.1948076319741615E-01  10   9  10   8
  0.1512702229614971E-01  10   9  10   9
  0.6400622943173448E+00  10  10   1   1
 -0.8170218486817839E-04  10  10   2   1
  0.6120988372268992E+00  10  10   2   2
  0.3676961671321180E-02  10  10   3   1
  0.5051600429611125E-01  10  10   3   2
  0.5340290737101747E+00  10  10   3   3
 -0.1840021694268182E-02  10  10   4   1
 -0.3476718241126964E-01  10  10   4   2
 -0.7026842452938578E-01  10  10   4   3
  0.4195643166634608E+00  10  10   4   4
  0.2160494033061372E-02  10  10   5   1
 -0.5257153325459540E-01  10  10   5   2
  0.6949575187901758E-01  10  10   5   3
  0.2633349526522422E-01  10  10   5   4
  0.4494562088309619E+00  10  10   5   5
  0.1528342153567226E-02  10  10   6   1
  0.2560024171859802E-01  10  10   6   2
 -0.8615362942269124E-02  10  10   6   3
  0.8954977860433082E-02  10  10   6   4
  0.2654271616599965E-02  10  10   6   5
  0.5289551545623590E+00  10  10   6   6
  0.9682396082394962E-03  10  10   7   1
  0.1603328810721849E-01  10  10   7   2
  0.1308964127167106E-01  10  10   7   3
 -0.4417150270919346E-01  10  10   7   4
 -0.1008944584182214E-01  10  10   7   5
 -0.6843390896132759E-02  10  10   7   6
  0.5289943920717093E+00  10  10   7   7
  0.5551362872140518E+00  10  10   8   8
 -0.1056197280857400E+00  10  10   9   8
  0.4543067403149615E+00  10  10   9   9
  0.2236384846430362E-01  10  10  10   8
 -0.7603710063474212E-02  10  10  10   9
  0.5842283134216888E+00  10  10  10  10
  0.6790799561005493E+00  11  11   1   1
 -0.1485195181551340E-03  11  11   2   1
  0.6255144092995193E+00  11  11   2   2
  0.1034959983500177E-01  11  11   3   1
  0.6119879145460080E-01  11  11   3   2
  0.5013777682743007E+00  11  11   3   3
 -0.5226563684711208E-02  11  11   4   1
 -0.3260484078264764E-01  11  11   4   2
 -0.8308978803656125E-01  11  11   4   3
  0.4161942657861346E+00  11  11   4   4
  0.7266989690952602E-02  11  11   5   1
 -0.5145236073050907E-01  11  11   5   2
  0.5718618453071644E-01  11  11   5   3
  0.4125962679427819E-01  11  11   5   4
  0.4408311304056545E+00  11  11   5   5
 -0.2102232917165763E-02  11  11   6   1
 -0.2845544821136698E-01  11  11   6   2
  0.7522377247238105E-02  11  11   6   3
 -0.1211110358926163E-01  11  11   6   4
 -0.4319409045369941E-02  11  11   6   5
  0.5357435403586094E+00  11  11   6   6
 -0.2272695137761155E-02  11  11   7   1
  0.3256080646268811E-02  11  11   7   2
  0.3401719945556855E-01  11  11   7   3
 -0.3760774166693803E-01  11  11   7   4
  0.4738578865105758E-02  11  11   7   5
  0.1239038122248108E-01  11  11   7   6
  0.5146306294979142E+00  11  11   7   7
  0.5240518117361117E+00  11  11   8   8
 -0.1048336557297473E+00  11  11   9   8
  0.4406368782984447E+00  11  11   9   9
  0.2804514051986218E-01  11  11  10   8
 -0.2653249702434204E-02  11  11  10   9
  0.5160737474070233E+00  11  11  10  10
  0.5697807128216458E+00  11  11  11  11
 -0.2365387588370331E+00  12  11   1   1
  0.3171692309785816E-02  12  11   2   1
 -0.1570635006412943E+00  12  11   2   2
 -0.6827165584323067E-02  12  11   3   1
 -0.3574023751225108E-01  12  11   3   2
 -0.1025398818157306E+00  12  11   3   3
  0.2818171809708853E-02  12  11   4   1
  0.3173254060316988E-01  12  11   4   2
  0.4035356671947046E-01  12  11   4   3
 -0.5306400733634187E-01  12  11   4   4
 -0.6399618497707912E-02  12  11   5   1
  0.3734118228346517E-01  12  11   5   2
 -0.3255800596811367E-01  12  11   5   3
 -0.1260718318142173E-02  12  11   5   4
 -0.6370498184496731E-01  12  11   5   5
  0.1271698033060176E-02  12  11   6   1
  0.4991409439594771E-02  12  11   6   2
  0.8603209523201728E-03  12  11   6   3
 -0.2003103217550396E-02  12  11   6   4
 -0.5919594931865951E-02  12  11   6   5
 -0.9020766908287887E-01  12  11   6   6
  0.7892254187709807E-03  12  11   7   1
 -0.2093301662837665E-02  12  11   7   2
 -0.1369919996384809E-01  12  11   7   3
  0.1879200491407876E-01  12  11   7   4
  0.2381500816232673E-02  12  11   7   5
 -0.3155974831633403E-02  12  11   7   6
 -0.9946741707697693E-01  12  11   7   7
 -0.1048336557297473E+00  12  11   8   8
  0.5974393796986661E-01  12  11   9   8
 -0.7369002775134420E-01  12  11   9   9
 -0.7310716140966601E-02  12  11  10   8
 -0.6907686535700605E-04  12  11  10   9
 -0.9917833504373419E-01  12  11  10  10
 -0.1123056323361580E+00  12  11  11  11
  0.7612278821989336E-01  12  11  12  11
  0.5902665447811962E+00  12  12   1   1
 -0.3773567603107932E-02  12  12   2   1
  0.5076624091264186E+00  12  12   2   2
  0.8352706447443497E-02  12  12   3   1
  0.4149182668813817E-01  12  12   3   2
  0.4279732658395085E+00  12  12   3   3
 -0.3374602256729961E-02  12  12   4   1
 -0.2445149095992671E-01  12  12   4   2
 -0.6086198332806406E-01  12  12   4   3
  0.3692823980637332E+00  12  12   4   4
  0.7925831696807273E-02  12  12   5   1
 -0.3600019984496061E-01  12  12   5   2
  0.4063771183939136E-01  12  12   5   3
  0.3099516076622166E-01  12  12   5   4
  0.3905762947818365E+00  12  12   5   5
 -0.1586931056359059E-02  12  12   6   1
 -0.1674598917731635E-01  12  12   6   2
  0.5718569309538500E-02  12  12   6   3
 -0.8013133581902691E-02  12  12   6   4
 -0.4651170671561351E-02  12  12   6   5
  0.4416102834543021E+00  12  12   6   6
 -0.1115509703357526E-02  12  12   7   1
  0.1712226855618892E-02  12  12   7   2
  0.2003469645242056E-01  12  12   7   3
 -0.2212564385372773E-01  12  12   7   4
  0.5454885908747986E-02  12  12   7   5
  0.6917334711048298E-02  12  12   7   6
  0.4330369296137317E+00  12  12   7   7
  0.4406368782984456E+00  12  12   8   8
 -0.7369002775134570E-01  12  12   9   8
  0.3889360449802340E+00  12  12   9   9
  0.1503894755157531E-01  12  12  10   8
  0.1323289956222898E-02  12  12  10   9
  0.4315481597650875E+00  12  12  10  10
  0.4717689026505555E+00  12  12  11  11
 -0.7252905619106148E-01  12  12  12  11
  0.4215809467896594E+00  12  12  12  12
 -0.1437938649888543E-01  13  11   1   1
  0.8917412584429929E-02  13  11   2   1
  0.7958782489725297E-01  13  11   2   2
  0.1105610862585305E-01  13  11   3   1
  0.4533196522540232E-01  13  11   3   2
 -0.1911428326310131E-01  13  11   3   3
 -0.8235593978359261E-02  13  11   4   1
 -0.9520817858197084E-02  13  11   4   2
 -0.1809366462631087E-01  13  11   4   3
  0.1841691959903988E-01  13  11   4   4
  0.3145291432159289E-02  13  11   5   1
  0.2395058836012071E-02  13  11   5   2
 -0.2420827502610542E-01  13  11   5   3
  0.2971671913559618E-01  13  11   5   4
 -0.7377676440741665E-02  13  11   5   5
  0.2119069235092958E-03  13  11   6   1
 -0.8717186698252853E-02  13  11   6   2
 -0.7256214598527059E-02  13  11   6   3
 -0.3918034050236956E-02  13  11   6   4
 -0.4586556702824193E-02  13  11   6   5
  0.2997637513906636E-01  13  11   6   6
 -0.2827394501195312E-02  13  11   7   1
  0.2582867950510669E-01  13  11   7   2
  0.3116543665687551E-01  13  11   7   3
 -0.2763581055155354E-02  13  11   7   4