 &FCI NORB= 12,NELEC= 12,MS2= 0,
  ORBSYM=2,2,2,2,2,2,2,2,2,2,2,2,
  ISYM=1,
 /
  0.2349336444806973E+00   1   1   1   1
 -0.1157342451041377E-13   2   1   1   1
  0.8787565874184022E-01   2   1   2   1
  0.1868755609800081E+00   2   2   1   1
  0.1497153095941783E-13   2   2   2   1
  0.2061569072284906E+00   2   2   2   2
 -0.4728180926998971E-01   3   1   1   1
 -0.2806782584130474E-14   3   1   2   1
  0.1864318667351260E-01   3   1   2   2
  0.6454999904892264E-01   3   1   3   1
 -0.4600703498724990E-14   3   2   1   1
  0.5510047174084766E-01   3   2   2   1
  0.1347272987617387E-13   3   2   2   2
 -0.4892787563992584E-14   3   2   3   1
  0.7424124246051855E-01   3   2   3   2
  0.1841248536763767E+00   3   3   1   1
 -0.8566064524373473E-14   3   3   2   1
  0.1795799126526491E+00   3   3   2   2
 -0.4608808129572175E-02   3   3   3   1
 -0.9332812300755222E-14   3   3   3   2
  0.1940277968770676E+00   3   3   3   3
  0.6654616094281529E-14   4   1   1   1
 -0.3365382454237191E-01   4   1   2   1
 -0.2615095640035037E-15   4   1   2   2
 -0.1283695372222837E-15   4   1   3   1
  0.1710869993551715E-01   4   1   3   2
 -0.1350915906916939E-14   4   1   3   3
  0.4970915448456505E-01   4   1   4   1
 -0.4865853610576566E-01   4   2   1   1
  0.2662366854755405E-14   4   2   2   1
 -0.8660574339120770E-02   4   2   2   2
  0.3925296471123457E-01   4   2   3   1
  0.6262351748276274E-14   4   2   3   2
  0.9494583860108506E-02   4   2   3   3
  0.2819359329331306E-14   4   2   4   1
  0.5584340413542713E-01   4   2   4   2
 -0.9952975943416931E-15   4   3   1   1
  0.5375639693457879E-01   4   3   2   1
  0.1221332063261471E-13   4   3   2   2
 -0.6516488737506876E-14   4   3   3   1
  0.5329318701229715E-01   4   3   3   2
 -0.7450637329320386E-14   4   3   3   3
 -0.1599399976365090E-02   4   3   4   1
  0.1274154393104965E-14   4   3   4   2
  0.7489564202643571E-01   4   3   4   3
  0.1821955484272748E+00   4   4   1   1
  0.4260480856999038E-14   4   4   2   1
  0.1775738383172506E+00   4   4   2   2
 -0.4697131558183363E-02   4   4   3   1
  0.2820660371938288E-14   4   4   3   2
  0.1841198466179234E+00   4   4   3   3
 -0.1839674246273404E-14   4   4   4   1
  0.1936291917015888E-02   4   4   4   2
  0.2331468351712829E-14   4   4   4   3
  0.1926809872697655E+00   4   4   4   4
  0.2527429137275557E-03   5   1   1   1
  0.1615515447112026E-14   5   1   2   1
 -0.2655917643078389E-01   5   1   2   2
 -0.2618434181973820E-01   5   1   3   1
  0.3873203840987216E-14   5   1   3   2
  0.1328570676184715E-01   5   1   3   3
 -0.1960237527853792E-15   5   1   4   1
  0.1421091793062310E-01   5   1   4   2
  0.1494030593685025E-15   5   1   4   3
  0.7441967319128785E-02   5   1   4   4
  0.3921458159251207E-01   5   1   5   1
  0.1026631037126524E-14   5   2   1   1
 -0.3418198527889420E-01   5   2   2   1
 -0.3983358781711743E-14   5   2   2   2
  0.4904496947455428E-14   5   2   3   1
 -0.5544820121864483E-02   5   2   3   2
  0.2654126918244515E-14   5   2   3   3
  0.2858773065011145E-01   5   2   4   1
  0.8191797934431477E-14   5   2   4   2
  0.1948579983377056E-01   5   2   4   3
 -0.1563853213593092E-14   5   2   4   4
 -0.4332471881252076E-15   5   2   5   1
  0.5258912676926888E-01   5   2   5   2
 -0.4929962025311939E-01   5   3   1   1
  0.5733477928537845E-14   5   3   2   1
 -0.1110328000082687E-01   5   3   2   2
  0.3749641942134997E-01   5   3   3   1
  0.3351485755587191E-14   5   3   3   2
 -0.2251093669511841E-03   5   3   3   3
 -0.2631575513056816E-14   5   3   4   1
  0.4731432367090005E-01   5   3   4   2
 -0.5393255286811893E-14   5   3   4   3
  0.9973783445558559E-02   5   3   4   4
  0.9018810521906614E-02   5   3   5   1
 -0.2189221026682731E-14   5   3   5   2
  0.5596294991753330E-01   5   3   5   3
 -0.1350265385613447E-14   5   4   1   1
  0.5215402048715820E-01   5   4   2   1
  0.1543643685097962E-13   5   4   2   2
 -0.3992466079960622E-14   5   4   3   1
  0.6265183283196965E-01   5   4   3   2
 -0.9041378756791119E-14   5   4   3   3
  0.9250678374262506E-02   5   4   4   1
  0.1080732725533551E-14   5   4   4   2
  0.5716467773121386E-01   5   4   4   3
  0.1890848588814720E-14   5   4   4   4
 -0.1635410556977135E-14   5   4   5   1
  0.2452907273390415E-02   5   4   5   2
 -0.2868365267527651E-14   5   4   5   3
  0.6916255263047121E-01   5   4   5   4
  0.1799451532018381E+00   5   5   1   1
 -0.2586472702681419E-14   5   5   2   1
  0.1902585367847446E+00   5   5   2   2
  0.9982798793187000E-02   5   5   3   1
 -0.5467848396278896E-14   5   5   3   2
  0.1807514101890632E+00   5   5   3   3
 -0.2242997454438012E-14   5   5   4   1
 -0.1285967090810976E-03   5   5   4   2
 -0.4857225732735060E-14   5   5   4   3
  0.1791605261976373E+00   5   5   4   4
 -0.1075174658292102E-01   5   5   5   1
 -0.1747733902046633E-14   5   5   5   2
 -0.2102351963014807E-02   5   5   5   3
 -0.4361094818605693E-14   5   5   5   4
  0.1923851360046038E+00   5   5   5   5
 -0.3046499684467019E-14   6   1   1   1
  0.9730240367590147E-03   6   1   2   1
 -0.2609132528086366E-14   6   1   2   2
  0.3077399446382856E-14   6   1   3   1
 -0.2150052220667445E-01   6   1   3   2
  0.3793189720657786E-14   6   1   3   3
 -0.2159837474461344E-01   6   1   4   1
  0.2743248336822823E-14   6   1   4   2
  0.2185614080790645E-01   6   1   4   3
 -0.6104058231093390E-15   6   1   4   4
 -0.9861902960928148E-15   6   1   5   1
  0.2313285620817654E-01   6   1   5   2
 -0.2839904960499906E-14   6   1   5   3
 -0.8410872259263895E-02   6   1   5   4
  0.1015680595184421E-14   6   1   5   5
  0.4495893961451471E-01   6   1   6   1
  0.6467734228473549E-03   6   2   1   1
 -0.3762073118307452E-14   6   2   2   1
 -0.2665224260840957E-01   6   2   2   2
 -0.2668705385698026E-01   6   2   3   1
  0.2263488875497988E-14   6   2   3   2
  0.5213837929444019E-02   6   2   3   3
  0.4076600168545497E-14   6   2   4   1
  0.6123909912843511E-02   6   2   4   2
  0.1466058177634899E-14   6   2   4   3
  0.1434079066051688E-01   6   2   4   4
  0.3318729142295340E-01   6   2   5   1
  0.5203086225757936E-14   6   2   5   2
  0.1536862340531092E-01   6   2   5   3
 -0.1776790520269245E-14   6   2   5   4
 -0.1297089019722236E-01   6   2   5   5
 -0.4384513585531380E-15   6   2   6   1
  0.3968985461446559E-01   6   2   6   2
  0.4118341952186189E-14   6   3   1   1
 -0.3477332205795035E-01   6   3   2   1
  0.1783295733304158E-14   6   3   2   2
  0.6065894314621900E-14   6   3   3   1
  0.5229874430876736E-02   6   3   3   2
 -0.2376571162088226E-15   6   3   3   3
  0.3982416459068763E-01   6   3   4   1
  0.3360159372967075E-14   6   3   4   2
 -0.9545541178166859E-04   6   3   4   3
 -0.3011479954295737E-14   6   3   4   4
 -0.5225854471380131E-14   6   3   5   1
  0.3277096976444036E-01   6   3   5   2
 -0.3676746407332843E-14   6   3   5   3
  0.1330462920984706E-01   6   3   5   4
 -0.3504141421473150E-15   6   3   5   5
 -0.1005754141241333E-01   6   3   6   1
 -0.1104585173328232E-14   6   3   6   2
  0.4477993195428953E-01   6   3   6   3
 -0.4939801327824937E-01   6   4   1   1
  0.6143089509302868E-14   6   4   2   1
  0.3416345719288436E-02   6   4   2   2
  0.5188677789490111E-01   6   4   3   1
  0.3608224830031759E-14   6   4   3   2
 -0.4052070201903410E-02   6   4   3   3
 -0.1809316585443810E-14   6   4   4   1
  0.4275434801599357E-01   6   4   4   2
 -0.2695760281667958E-14   6   4   4   3
 -0.3934002019147443E-02   6   4   4   4
 -0.1123198026935181E-01   6   4   5   1
 -0.4874572967494828E-15   6   4   5   2
  0.4159726216761972E-01   6   4   5   3
  0.1198693921899974E-14   6   4   5   4
  0.1104236838606367E-01   6   4   5   5
 -0.6112731848473274E-15   6   4   6   1
 -0.1364604706649760E-01   6   4   6   2
  0.1253337711393243E-14   6   4   6   3
  0.5505997292754312E-01   6   4   6   4
 -0.2632226034360308E-14   6   5   1   1
  0.7336771583868304E-01   6   5   2   1
  0.1404779070846018E-13   6   5   2   2
 -0.9128114930589959E-14   6   5   3   1
  0.5904367131277032E-01   6   5   3   2
 -0.8498410308810378E-14   6   5   3   3
 -0.1585152847884383E-01   6   5   4   1
 -0.1782428371566169E-14   6   5   4   2
  0.5710580593254984E-01   6   5   4   3
  0.3535366444040733E-14   6   5   4   4
  0.2268150944839675E-14   6   5   5   1
 -0.1848509078298747E-01   6   5   5   2
 -0.1645385216964002E-14   6   5   5   3
  0.5686096261640822E-01   6   5   5   4
 -0.4373237882937531E-14   6   5   5   5
 -0.1212449475838670E-02   6   5   6   1
 -0.9441232518003773E-15   6   5   6   2
 -0.1966669722804560E-01   6   5   6   3
 -0.1030425744730223E-14   6   5   6   4
  0.7415523643588751E-01   6   5   6   5
  0.2160136495991378E+00   6   6   1   1
 -0.1441555208536727E-14   6   6   2   1
  0.1877727968895617E+00   6   6   2   2
 -0.2801816957337433E-01   6   6   3   1
 -0.2584737979205443E-14   6   6   3   2
  0.1839527382178276E+00   6   6   3   3
 -0.1128437621122913E-14   6   6   4   1
 -0.3139020050457120E-01   6   6   4   2
  0.2081668171172169E-14   6   6   4   3
  0.1822941666709786E+00   6   6   4   4
 -0.2135925081894312E-02   6   6   5   1
 -0.2251671071817896E-14   6   6   5   2
 -0.3285747487683747E-01   6   6   5   3
  0.1040834085586084E-15   6   6   5   4
  0.1819716308832277E+00   6   6   5   5
  0.7611099250848241E-15   6   6   6   1
 -0.2239699029083595E-02   6   6   6   2
 -0.1762479051592436E-14   6   6   6   3
 -0.3273388348026808E-01   6   6   6   4
  0.2255140518769849E-14   6   6   6   5
  0.2096572157367800E+00   6   6   6   6
 -0.1009618593244343E-03   7   1   1   1
  0.2011140819851986E-14   7   1   2   1
 -0.2357738642360617E-02   7   1   2   2
 -0.2170347275072842E-02   7   1   3   1
  0.1072790944620094E-14   7   1   3   2
  0.1524550185489674E-01   7   1   3   3
 -0.1960671208722786E-14   7   1   4   1
  0.1484254701268437E-01   7   1   4   2
 -0.1026902087669646E-14   7   1   4   3
 -0.1053863467359388E-01   7   1   4   4
  0.1437012184429631E-01   7   1   5   1
 -0.1249868264441290E-14   7   1   5   2
 -0.9980465046350534E-02   7   1   5   3
  0.2197677803628117E-15   7   1   5   4
  0.2168725157166112E-02   7   1   5   5
  0.1556914319689184E-14   7   1   6   1
 -0.7216806051553023E-02   7   1   6   2
 -0.5975038172567615E-15   7   1   6   3
  0.1961800872600687E-02   7   1   6   4
  0.5458415837378272E-15   7   1   6   5
  0.4198783392072399E-03   7   1   6   6
  0.3792259889179003E-01   7   1   7   1
  0.1863282748579276E-14   7   2   1   1
 -0.2864967709454339E-02   7   2   2   1
  0.4554787536720228E-14   7   2   2   2
  0.1249705634115417E-14   7   2   3   1
  0.1775575748260374E-01   7   2   3   2
 -0.2353152395162539E-14   7   2   3   3
  0.1935869035385775E-01   7   2   4   1
  0.7534120896601770E-15   7   2   4   2
 -0.1833438564906852E-02   7   2   4   3
 -0.1651023068260926E-14   7   2   4   4
 -0.1804112415015879E-14   7   2   5   1
 -0.1387281887957760E-02   7   2   5   2
 -0.2457886325024639E-15   7   2   5   3
 -0.5070791338773345E-02   7   2   5   4
 -0.5767955557622884E-16   7   2   5   5
 -0.1735575520852759E-01   7   2   6   1
 -0.2442056973306350E-14   7   2   6   2
 -0.2055248792015322E-02   7   2   6   3
  0.4675079767757495E-15   7   2   6   4
  0.2418065634522445E-02   7   2   6   5
  0.9020562075079397E-16   7   2   6   6
 -0.5770123961967855E-15   7   2   7   1
  0.3189474836729466E-01   7   2   7   2
 -0.2975487673171079E-02   7   3   1   1
  0.1190996086475327E-14   7   3   2   1
  0.2230129035748321E-01   7   3   2   2
  0.2454795770590954E-01   7   3   3   1
 -0.3212057356205555E-14   7   3   3   2
 -0.1718110406840513E-02   7   3   3   3
 -0.2634611279139776E-14   7   3   4   1
 -0.1532956417222746E-03   7   3   4   2
 -0.9874913386997974E-15   7   3   4   3
 -0.2785018130112339E-03   7   3   4   4
 -0.2310761638726481E-01   7   3   5   1
 -0.8257283745649602E-15   7   3   5   2
  0.5486252309958289E-03   7   3   5   3
  0.6529065482707708E-15   7   3   5   4
 -0.4532746298351281E-03   7   3   5   5
  0.1450011985482114E-14   7   3   6   1
 -0.1922050399570887E-01   7   3   6   2
  0.1994931997373328E-14   7   3   6   3
  0.2067096375653846E-02   7   3   6   4
 -0.1103067290286752E-14   7   3   6   5
  0.2444837706969503E-02   7   3   6   6
 -0.8217519159575526E-02   7   3   7   1
  0.5555451931815725E-15   7   3   7   2
  0.3340403191247262E-01   7   3   7   3
 -0.2215783979908625E-14   7   4   1   1
  0.3009361987273984E-01   7   4   2   1
  0.2050659989039083E-14   7   4   2   2
 -0.3659399172573075E-14   7   4   3   1
  0.3071706135558078E-03   7   4   3   2
 -0.7936359902593892E-15   7   4   3   3
 -0.2898460278074544E-01   7   4   4   1
 -0.4141652298894627E-14   7   4   4   2
  0.2168981086945900E-02   7   4   4   3
  0.2429480228105518E-14   7   4   4   4
  0.1150338505007120E-14   7   4   5   1
 -0.2497159459996539E-01   7   4   5   2
  0.1167902580201385E-14   7   4   5   3
  0.7654160642626921E-03   7   4   5   4
  0.9393527622414410E-15   7   4   5   5
  0.4028715035489860E-02   7   4   6   1
 -0.1472780231104309E-14   7   4   6   2
 -0.2383725878524974E-01   7   4   6   3
 -0.5950101522600448E-15   7   4   6   4
  0.7313542135832470E-02   7   4   6   5
  0.1441121527667732E-14   7   4   6   6
  0.1130172344598890E-14   7   4   7   1
 -0.1001232336590642E-01   7   4   7   2
  0.8127179484951341E-15   7   4   7   3
  0.3594496931806896E-01   7   4   7   4
  0.3633903365072733E-01   7   5   1   1
 -0.2950330951767555E-14   7   5   2   1
  0.2822753737996044E-03   7   5   2   2
 -0.3516762886956906E-01   7   5   3   1
 -0.1194790794079026E-14   7   5   3   2
  0.3481299311737245E-02   7   5   3   3
  0.1187418219306124E-14   7   5   4   1
 -0.3049121073394386E-01   7   5   4   2
  0.2013146593871085E-14   7   5   4   3
  0.3300507931636420E-02   7   5   4   4
  0.5326063825004151E-02   7   5   5   1
 -0.1177877240188252E-14   7   5   5   2
 -0.2897983807386378E-01   7   5   5   3
  0.7606762442158299E-15   7   5   5   4
  0.4530209186798650E-03   7   5   5   5
 -0.7350890729451720E-15   7   5   6   1
  0.6087192726040189E-02   7   5   6   2
 -0.8565197162635485E-15   7   5   6   3
 -0.2930632478988063E-01   7   5   6   4
  0.2145852939783310E-14   7   5   6   5
  0.1535547418851388E-01   7   5   6   6
 -0.6714845040854560E-03   7   5   7   1
 -0.6379445582904708E-15   7   5   7   2
 -0.1183269083391964E-01   7   5   7   3
  0.1286297457436802E-14   7   5   7   4
  0.3795337665714506E-01   7   5   7   5
  0.3919716114186844E-14   7   6   1   1
 -0.3964756976533498E-01   7   6   2   1
 -0.7725157319393716E-14   7   6   2   2
  0.2543538296650993E-14   7   6   3   1
 -0.3344527499811763E-01   7   6   3   2
  0.5166006511458932E-14   7   6   3   3
  0.6779008270578373E-02   7   6   4   1
 -0.1318389841742373E-14   7   6   4   2
 -0.3203309192180223E-01   7   6   4   3
 -0.1476249678056263E-14   7   6   4   4
 -0.7986233202528226E-15   7   6   5   1
  0.8069476192988402E-02   7   6   5   2
 -0.9922618282587337E-15   7   6   5   3
 -0.3132425100089731E-01   7   6   5   4
  0.2806782584130474E-14   7   6   5   5
  0.8073108545497450E-03   7   6   6   1
  0.6797947621484113E-15   7   6   6   2
  0.7960982791257601E-02   7   6   6   3
 -0.1318389841742373E-14   7   6   6   4
 -0.3358965450299670E-01   7   6   6   5
  0.7658804146437603E-15   7   6   6   6
 -0.1118354540918798E-14   7   6   7   1
 -0.8735715550343421E-03   7   6   7   2
  0.5310422240834001E-15   7   6   7   3
 -0.1341874563269966E-01   7   6   7   4
  0.1022619489088328E-14   7   6   7   5
  0.4522066584981269E-01   7   6   7   6
  0.2158299158464105E+00   7   7   1   1
 -0.8612902058224847E-15   7   7   2   1
  0.1879513497839025E+00   7   7   2   2
 -0.2761655069903008E-01   7   7   3   1
  0.8170547571850761E-15   7   7   3   2
  0.1840680255851243E+00   7   7   3   3
  0.1602450810933576E-14   7   7   4   1
 -0.3097740345152324E-01   7   7   4   2
  0.3400058012914542E-14   7   7   4   3
  0.1823058579202240E+00   7   7   4   4
 -0.2165376342110980E-02   7   7   5   1
 -0.1703498453409225E-14   7   7   5   2
 -0.3239025408508479E-01   7   7   5   3
  0.3209238430557093E-14   7   7   5   4
  0.1818238915158674E+00   7   7   5   5
 -0.1545638617095335E-14   7   7   6   1
 -0.2278011266294695E-02   7   7   6   2
  0.5906733435701028E-15   7   7   6   3
 -0.3209961151806000E-01   7   7   6   4
  0.3618633170887620E-14   7   7   6   5
  0.2081493296498326E+00   7   7   6   6
  0.4267096723404909E-03   7   7   7   1
  0.9384854005034526E-15   7   7   7   2
  0.2371587176675883E-02   7   7   7   3
  0.3235259282696745E-15   7   7   7   4
  0.1605528827204046E-01   7   7   7   5
 -0.1242062008799394E-14   7   7   7   6
  0.2102689322046858E+00   7   7   7   7
 -0.2063372259511476E-15   8   1   1   1
  0.1230087837180093E-02   8   1   2   1
 -0.1560492186858387E-14   8   1   2   2
 -0.1299362093615253E-14   8   1   3   1
 -0.4429437008081609E-02   8   1   3   2
  0.1348151191377100E-14   8   1   3   3
 -0.4980466478107655E-02   8   1   4   1
 -0.7246265219806869E-15   8   1   4   2
 -0.1027160541477851E-01   8   1   4   3
  0.5958775139980332E-15   8   1   4   4
  0.1903967435101794E-14   8   1   5   1
 -0.1056765918280154E-01   8   1   5   2
  0.6666759158613367E-15   8   1   5   3
  0.9706954837069990E-02   8   1   5   4
 -0.2695326600798964E-15   8   1   5   5
 -0.8939030281077634E-02   8   1   6   1
  0.3976853568676830E-15   8   1   6   2
  0.8599197539036077E-02   8   1   6   3
  0.3601719616996846E-15   8   1   6   4
 -0.1983134159624365E-02   8   1   6   5
 -0.3440173493296506E-15   8   1   6   6
  0.2893735598363811E-14   8   1   7   1
 -0.1999889822289560E-01   8   1   7   2
 -0.3274290560906223E-16   8   1   7   3
  0.6322539286520118E-02   8   1   7   4
  0.2190088388420719E-16   8   1   7   5
  0.5937217912408304E-03   8   1   7   6
  0.2106604821139335E-15   8   1   7   7
  0.2369150283180943E-01   8   1   8   1
  0.1329821753154775E-02   8   2   1   1
 -0.1948690774716821E-14   8   2   2   1
 -0.5189080871581463E-02   8   2   2   2
 -0.6244820159250092E-02   8   2   3   1
 -0.2799572639683445E-14   8   2   3   2
 -0.1529255709469052E-01   8   2   3   3
 -0.3548593710545056E-15   8   2   4   1
 -0.1568749342438615E-01   8   2   4   2
  0.8038274906807530E-15   8   2   4   3
  0.2490189797069417E-02   8   2   4   4
 -0.8771167352294121E-02   8   2   5   1
  0.3551846317062513E-15   8   2   5   2
  0.1812268716047243E-02   8   2   5   3
  0.7138387103644561E-15   8   2   5   4
  0.5406171445728989E-02   8   2   5   5
  0.3803381221079150E-15   8   2   6   1
  0.4086046983923921E-02   8   2   6   2
  0.5919743861770854E-15   8   2   6   3
  0.4664393220170654E-02   8   2   6   4
  0.9410874857174178E-16   8   2   6   5
 -0.2370784082087091E-02   8   2   6   6
 -0.2356233045177812E-01   8   2   7   1
 -0.4407064990719078E-14   8   2   7   2
 -0.1417392450789619E-01   8   2   7   3
 -0.9883587004377858E-15   8   2   7   4
  0.7961998081715979E-02   8   2   7   5
  0.1215715896007996E-14   8   2   7   6
 -0.2297431738400129E-02   8   2   7   7
  0.8093569217604291E-15   8   2   8   1
  0.3339338271460740E-01   8   2   8   2
 -0.1816960210759833E-14   8   3   1   1
 -0.7821874264847126E-02   8   3   2   1
 -0.3510863474942560E-14   8   3   2   2
  0.2700801821770016E-14   8   3   3   1
 -0.1940969342147139E-01   8   3   3   2
  0.3533198039695762E-14   8   3   3   3
 -0.1108477074743013E-01   8   3   4   1
  0.1868297183627021E-14   8   3   4   2
  0.1119117423803764E-02   8   3   4   3
 -0.5074066167232161E-16   8   3   4   4
  0.1160096324559490E-15   8   3   5   1
  0.9349820934344052E-02   8   3   5   2
 -0.2558717127065790E-15   8   3   5   3
 -0.1872439474161559E-02   8   3   5   4
 -0.6184289191857317E-15   8   3   5   5
  0.1874017611599041E-01   8   3   6   1
  0.5410168840702667E-15   8   3   6   2
  0.2057086235859565E-02   8   3   6   3
 -0.4675079767757495E-15   8   3   6   4
  0.1606346341049861E-02   8   3   6   5
  0.2445960101127298E-15   8   3   6   6
  0.6479192182773374E-15   8   3   7   1
 -0.2011437046704108E-01   8   3   7   2
  0.2565872861404195E-14   8   3   7   3
 -0.1308216265379203E-01   8   3   7   4
 -0.1962405932198763E-14   8   3   7   5
  0.9371350582047720E-02   8   3   7   6
 -0.7060324547225605E-15   8   3   7   7
  0.8428245552940968E-02   8   3   8   1
  0.1404258653803225E-14   8   3   8   2
  0.3135224020059468E-01   8   3   8   3
 -0.9968483721974768E-02   8   4   1   1
 -0.7588331005226046E-15   8   4   2   1
 -0.2406933192332929E-01   8   4   2   2
 -0.1383442702958483E-01   8   4   3   1
  0.1962189091764266E-14   8   4   3   2
  0.1331762490717368E-03   8   4   3   3
  0.1247699860096319E-14   8   4   4   1
  0.1036778714144861E-01   8   4   4   2
  0.6288372600415926E-15   8   4   4   3
 -0.7770315682181844E-03   8   4   4   4
  0.2304557003002999E-01   8   4   5   1
  0.2346972442779371E-14   8   4   5   2
  0.9087741340841688E-02   8   4   5   3
 -0.1516581998872724E-14   8   4   5   4
 -0.5531579607552062E-02   8   4   5   5
  0.5345116710353537E-15   8   4   6   1
  0.1994886973486685E-01   8   4   6   2
 -0.1719544645562010E-14   8   4   6   3
  0.8739562952593586E-03   8   4   6   4
 -0.3204901621867151E-15   8   4   6   5
 -0.2342859500406376E-02   8   4   6   6
  0.7324441687780415E-02   8   4   7   1
 -0.1783295733304158E-14   8   4   7   2
 -0.2206637775246367E-01   8   4   7   3
 -0.1414450154224589E-14   8   4   7   4
 -0.1209327829025444E-01   8   4   7   5
 -0.1878705524482882E-14   8   4   7   6
 -0.3275447549192732E-02   8   4   7   7
  0.7933107296076436E-15   8   4   8   1
  0.3930668610048041E-02   8   4   8   2
  0.8547849927875717E-15   8   4   8   3
  0.3332120558244660E-01   8   4   8   4
  0.3106781325257213E-14   8   5   1   1
 -0.1751783461469928E-01   8   5   2   1
  0.3998537612126540E-15   8   5   2   2
  0.6459676543668635E-15   8   5   3   1
  0.1141060110477303E-01   8   5   3   2
 -0.1100682045507284E-14   8   5   3   3
  0.2815735985746862E-01   8   5   4   1
  0.2704000218178848E-14   8   5   4   2
  0.8902920037520273E-02   8   5   4   3
 -0.1876970801006905E-14   8   5   4   4
 -0.6891189008317866E-15   8   5   5   1
  0.2392620116488691E-01   8   5   5   2
 -0.2631141832187822E-14   8   5   5   3
  0.9844874245560502E-02   8   5   5   4
 -0.2279426647433525E-14   8   5   5   5
 -0.4373013383573291E-02   8   5   6   1
  0.1974548996530601E-14   8   5   6   2
  0.2355669872346240E-01   8   5   6   3
 -0.1020884765612351E-14   8   5   6   4
 -0.1469323110698242E-02   8   5   6   5
 -0.1304512053934559E-14   8   5   6   6
 -0.6376192976387252E-15   8   5   7   1
  0.9648898646941278E-02   8   5   7   2
 -0.2043070573831685E-14   8   5   7   3
 -0.2491429260023216E-01   8   5   7   4
  0.6158268339717665E-15   8   5   7   5
 -0.1941961215745374E-01   8   5   7   6
  0.1446759378964657E-14   8   5   7   7
 -0.5870194914979689E-02   8   5   8   1
  0.7073334973295431E-15   8   5   8   2
  0.2921749032705210E-02   8   5   8   3
  0.2404760418572849E-14   8   5   8   4
  0.4483935707728357E-01   8   5   8   5
 -0.3703692299433440E-01   8   6   1   1
  0.7433290094560618E-15   8   6   2   1
 -0.7667070806715161E-03   8   6   2   2
  0.3542837060783997E-01   8   6   3   1
  0.1033461510813183E-14   8   6   3   2
 -0.4017299146838893E-02   8   6   3   3
  0.8161873954470877E-15   8   6   4   1
  0.3077775916567124E-01   8   6   4   2
 -0.2888314587501384E-14   8   6   4   3
 -0.3920216440406871E-02   8   6   4   4
 -0.5340357898367528E-02   8   6   5   1
  0.2391749992503023E-14   8   6   5   2
  0.2932021925145275E-01   8   6   5   3
 -0.1097646279424325E-14   8   6   5   4
 -0.1186536710948333E-02   8   6   5   5
 -0.8782037597132586E-16   8   6   6   1
 -0.6107658702315046E-02   8   6   6   2
  0.2495399720192637E-14   8   6   6   3
  0.2977532690871930E-01   8   6   6   4
 -0.3158497768884772E-14   8   6   6   5
 -0.1702579443685651E-01   8   6   6   6
  0.6731349335958686E-03   8   6   7   1
  0.1368479982111204E-14   8   6   7   2
  0.1178296699659035E-01   8   6   7   3
 -0.3332403797351446E-14   8   6   7   4
 -0.3760227775497617E-01   8   6   7   5
  0.2376571162088226E-15   8   6   7   6
 -0.1577080281649069E-01   8   6   7   7
 -0.2042636892962690E-15   8   6   8   1
 -0.7910897566520518E-02   8   6   8   2
  0.2381775332516156E-14   8   6   8   3
  0.1154165991626693E-01   8   6   8   4
  0.6015153652949579E-15   8   6   8   5
  0.3842097938963768E-01   8   6   8   6
  0.9709247295042189E-14   8   7   1   1
 -0.7356497872747671E-01   8   7   2   1
 -0.1428458046293102E-13   8   7   2   2
  0.2048708425128609E-14   8   7   3   1
 -0.5945217701583162E-01   8   7   3   2
  0.9261688638240173E-14   8   7   3   3
  0.1559868392785672E-01   8   7   4   1
 -0.4232725281383409E-14   8   7   4   2
 -0.5746856362538835E-01   8   7   4   3
 -0.3174543961037557E-14   8   7   4   4
 -0.9311128257305512E-15   8   7   5   1
  0.1820085567210131E-01   8   7   5   2
 -0.4403595543767125E-14   8   7   5   3
 -0.5718003183636065E-01   8   7   5   4
  0.3564856743132339E-14   8   7   5   5
  0.1235642154312182E-02   8   7   6   1
  0.2251237390948901E-14   8   7   6   2
  0.1924651170236857E-01   8   7   6   3
 -0.5934489011316657E-14   8   7   6   4
 -0.7353655718191432E-01   8   7   6   5
  0.1984523656517467E-14   8   7   6   6
 -0.3510646634508063E-15   8   7   7   1
 -0.2346716933656559E-02   8   7   7   2
  0.6331740687315346E-16   8   7   7   3
 -0.7968176290275002E-02   8   7   7   4
  0.3020153571675621E-14   8   7   7   5
  0.3364842877568841E-01   8   7   7   6
  0.5247538514829841E-15   8   7   7   7
  0.1916875264263183E-02   8   7   8   1
 -0.1227316859253591E-15   8   7   8   2
 -0.8968186631820364E-03   8   7   8   3
 -0.4848552115355176E-15   8   7   8   4
  0.1464062158104918E-02   8   7   8   5
 -0.2050443148604586E-14   8   7   8   6
  0.7544552951155374E-01   8   7   8   7
  0.1809317986091208E+00   8   8   1   1
  0.2988061187370050E-14   8   8   2   1
  0.1912513310022764E+00   8   8   2   2
  0.9963070776539643E-02   8   8   3   1
  0.3707104068162437E-14   8   8   3   2
  0.1818769792519702E+00   8   8   3   3
  0.1144917494144693E-14   8   8   4   1
 -0.2925389176215015E-04   8   8   4   2
  0.3613429000459689E-14   8   8   4   3
  0.1802648388781569E+00   8   8   4   4
 -0.1054458551386905E-01   8   8   5   1
  0.6409803243734302E-15   8   8   5   2
 -0.2032478226659416E-02   8   8   5   3
  0.5620504062164855E-14   8   8   5   4
  0.1926014933341944E+00   8   8   5   5
 -0.2324529457808922E-15   8   8   6   1
 -0.1264920091903177E-01   8   8   6   2
  0.3282096816548119E-14   8   8   6   3
  0.1032055097499445E-01   8   8   6   4
  0.2976785484776201E-14   8   8   6   5
  0.1827316033735198E+00   8   8   6   6
  0.2095631362490145E-02   8   8   7   1
 -0.8239936510889834E-16   8   8   7   2
  0.1431628926547145E-03   8   8   7   3
 -0.6340414304695230E-15   8   8   7   4
  0.8947797048179220E-03   8   8   7   5
 -0.2484124017598788E-14   8   8   7   6
  0.1838931341168924E+00   8   8   7   7
  0.5772292366312826E-15   8   8   8   1
  0.4837071124845355E-02   8   8   8   2
 -0.7138387103644561E-15   8   8   8   3
 -0.6109760029813619E-02   8   8   8   4
  0.1970645868709653E-14   8   8   8   5
 -0.1139201835078200E-02   8   8   8   6
 -0.3861494457524373E-14   8   8   8   7
  0.1958293455336722E+00   8   8   8   8
 -0.6193231704947748E-03   9   1   1   1
 -0.2974779710757103E-15   9   1   2   1
  0.2955826166205977E-02   9   1   2   2
  0.3340156925969170E-02   9   1   3   1
  0.3855287400086893E-15   9   1   3   2
  0.1413845474962639E-02   9   1   3   3
  0.9338233311617650E-15   9   1   4   1
  0.1868119077234937E-02   9   1   4   2
 -0.1119736898688717E-14   9   1   4   3
  0.9434640368118974E-02   9   1   4   4
  0.3654077381642984E-03   9   1   5   1
 -0.1573177352276467E-15   9   1   5   2
  0.9316164851083986E-02   9   1   5   3
 -0.7936359902593892E-16   9   1   5   4
 -0.9152113330142122E-02   9   1   5   5
 -0.2247334263127954E-14   9   1   6   1
  0.8857263196437898E-02   9   1   6   2
  0.2842778096256993E-15   9   1   6   3
 -0.8762369258655546E-02   9   1   6   4
 -0.1023757901369438E-15   9   1   6   5
  0.1812176273106129E-02   9   1   6   6
 -0.1345898948385226E-01   9   1   7   1
  0.7539541907464198E-15   9   1   7   2
  0.1797941450194231E-01   9   1   7   3
 -0.4732542482899227E-15   9   1   7   4
 -0.5741516255964909E-02   9   1   7   5
  0.1247808280313567E-14   9   1   7   6
  0.1748155998199830E-02   9   1   7   7
  0.2016616040823038E-15   9   1   8   1
 -0.9485713642375066E-02   9   1   8   2
  0.1491428508471060E-14   9   1   8   3
 -0.7400199220567425E-02   9   1   8   4
 -0.1098622061379562E-14   9   1   8   5
  0.5703466342003196E-02   9   1   8   6
  0.2737610485525899E-15   9   1   8   7
 -0.8695238386208393E-02   9   1   8   8
  0.2278434167998475E-01   9   1   9   1
  0.8544868371901382E-16   9   2   1   1
  0.3873732009651313E-02   9   2   2   1
  0.1536314478411960E-14   9   2   2   2
  0.1390489286212659E-15   9   2   3   1
  0.3925270232278861E-02   9   2   3   2
  0.4126473468479830E-15   9   2   3   3
  0.1873005411038317E-03   9   2   4   1
  0.1606896039840766E-14   9   2   4   2
  0.1312788507238651E-01   9   2   4   3
  0.2432949675057472E-15   9   2   4   4
 -0.1132991270247352E-16   9   2   5   1
  0.1026697021470329E-01   9   2   5   2
 -0.1083876911833759E-14   9   2   5   3
 -0.2403691460437550E-02   9   2   5   4
  0.2719179048593645E-15   9   2   5   5
  0.1139592249595392E-01   9   2   6   1
  0.4141652298894627E-15   9   2   6   2
 -0.3317050368976203E-02   9   2   6   3
 -0.6906367838732663E-15   9   2   6   4
 -0.5258734783291038E-02   9   2   6   5
 -0.7546047120499111E-16   9   2   6   6
  0.6977925182116707E-15   9   2   7   1
  0.6196975331666238E-02   9   2   7   2
 -0.6093216209368535E-16   9   2   7   3
  0.1313169157956019E-01   9   2   7   4
  0.1347880140833979E-14   9   2   7   5