 &FCI NORB= 12,NELEC= 12,MS2= 0,
  ORBSYM=1,1,1,1,1,1,1,1,1,1,1,1,
  ISYM=1,
 /
  1.3634152729248372e-01   1   1   1   1
  8.3517358140458486e-01   2   1   1   1
  9.6889890335310713e-01   2   1   2   1
  2.2181300893972219e-01   2   2   1   1
  3.0885888345649626e-01   2   2   2   1
  5.4767337577148412e-01   2   2   2   2
  1.8919359407113392e-01   3   1   1   1
  9.9288842061588889e-01   3   1   2   1
  9.9646486422246072e-01   3   1   2   2
  9.6772724207349203e-01   3   1   3   1
  7.2611312424867780e-01   3   2   1   1
  9.8112858208516207e-01   3   2   2   1
  1.1075188909336221e-01   3   2   2   2
  7.9830775089279993e-01   3   2   3   1
  2.9773242010839290e-01   3   2   3   2
  5.7787009348963525e-03   3   3   1   1
  1.1335205154012412e-01   3   3   2   1
  6.4012359374105465e-01   3   3   2   2
  8.7855221475344503e-01   3   3   3   1
  5.0415901502746452e-01   3   3   3   2
  7.9813068654506580e-01   3   3   3   3
  3.6193270734783173e-01   4   1   1   1
  2.1271240805934188e-01   4   1   2   1
  6.8167817902170569e-01   4   1   2   2
  3.9933978139237886e-01   4   1   3   1
  7.4090659743174503e-01   4   1   3   2
  4.7528392193661750e-01   4   1   3   3
  4.2266559342430782e-01   4   1   4   1
  1.7469130682847983e-01   4   2   1   1
  3.0261121375044236e-01   4   2   2   1
  7.9748263532303743e-01   4   2   2   2
  3.1723389437417526e-01   4   2   3   1
  8.7255639124723294e-01   4   2   3   2
  1.4996486243096302e-01   4   2   3   3
  9.9407442582771988e-01   4   2   4   1
  8.2208136154260347e-01   4   2   4   2
  1.2605758176910081e-01   4   3   1   1
  7.6398626255960722e-01   4   3   2   1
  4.9109845058183926e-01   4   3   2   2
  6.6394191498924326e-01   4   3   3   1
  1.2677073683852924e-01   4   3   3   2
  2.1099886544448715e-01   4   3   3   3
  5.2165209359431468e-02   4   3   4   1
  3.7404810336279848e-02   4   3   4   2
  4.0932242980079864e-01   4   3   4   3
  4.5853116627346602e-01   4   4   1   1
  4.8808135794152985e-01   4   4   2   1
  7.9418099657764352e-01   4   4   2   2
  9.2095391636100954e-01   4   4   3   1
  8.0772349441096469e-01   4   4   3   2
  7.0606847741705114e-01   4   4   3   3
  3.8156141294219941e-03   4   4   4   1
  7.1099317121562611e-01   4   4   4   2
  6.4431699556541844e-01   4   4   4   3
  4.5657679167293913e-01   4   4   4   4
  7.7414321178474133e-01   5   1   1   1
  5.7418091192999487e-01   5   1   2   1
  8.7688065767568668e-01   5   1   2   2
  8.0836731465106881e-01   5   1   3   1
  1.8756121680975922e-02   5   1   3   2
  8.2142474557541212e-01   5   1   3   3
  8.2101994339093565e-01   5   1   4   1
  9.4013395476910544e-01   5   1   4   2
  4.1325384839656243e-01   5   1   4   3
  4.2374195131729642e-01   5   1   4   4
  5.8137572098624246e-01   5   1   5   1
  1.5889952697015097e-01   5   2   1   1
  7.6196948247577201e-01   5   2   2   1
  2.3092590846939587e-01   5   2   2   2
  8.0992481418611728e-01   5   2   3   1
  9.8853307920272382e-01   5   2   3   2
  3.3311583405594059e-01   5   2   3   3
  3.0053187411731819e-01   5   2   4   1
  1.4525587538555599e-02   5   2   4   2
  2.1802060161934567e-01   5   2   4   3
  9.0745735304840691e-01   5   2   4   4
  8.4861932417247410e-01   5   2   5   1
  9.5506255591796541e-01   5   2   5   2
  7.7911881234506808e-01   5   3   1   1
  9.8747216723063391e-01   5   3   2   1
  6.8527785757628246e-02   5   3   2   2
  7.9380398394260510e-01   5   3   3   1
  5.9490905760989499e-01   5   3   3   2
  7.3306592653649250e-01   5   3   3   3
  6.9553765089117847e-01   5   3   4   1
  6.8013997092227296e-01   5   3   4   2
  3.9292814872889853e-01   5   3   4   3
  5.6199588491580799e-01   5   3   4   4
  2.0885998899491165e-01   5   3   5   1
  5.2784408715000697e-01   5   3   5   2
  4.0480430959858432e-01   5   3   5   3
  3.5340964569335248e-01   5   4   1   1
  5.9323105464136849e-01   5   4   2   1
  3.5698881541946625e-01   5   4   2   2
  9.6500140573365534e-01   5   4   3   1
  1.5528397901770105e-01   5   4   3   2
  3.9551330241729848e-01   5   4   3   3
  3.8790860923913334e-01   5   4   4   1
  7.2722776689401125e-01   5   4   4   2
  3.8918123767194002e-01   5   4   4   3
  9.2756534880865837e-01   5   4   4   4
  4.3668144741363130e-01   5   4   5   1
  8.6281550885338887e-01   5   4   5   2
  6.2073965320736268e-01   5   4   5   3
  1.2042763392172827e-01   5   4   5   4
  4.7248484493917320e-01   5   5   1   1
  3.4087947944125824e-01   5   5   2   1
  5.3031214651126057e-01   5   5   2   2
  7.1638460896362677e-01   5   5   3   1
  9.8839101820611475e-01   5   5   3   2
  7.2077296788177703e-01   5   5   3   3
  9.1266491447965092e-01   5   5   4   1
  5.0599300674552750e-01   5   5   4   2
  5.5871048759632369e-01   5   5   4   3
  5.0368683104501699e-01   5   5   4   4
  4.6301173221552538e-01   5   5   5   1
  5.4704536991980957e-01   5   5   5   2
  4.4813681764601232e-01   5   5   5   3
  8.5459653575208439e-01   5   5   5   4
  6.0462725285306473e-01   5   5   5   5
  4.9904564219213698e-01   6   1   1   1
  9.7994567915632758e-01   6   1   2   1
  3.5282995915652628e-02   6   1   2   2
  9.7702503257527373e-01   6   1   3   1
  3.6382327441626366e-01   6   1   3   2
  6.7984017410847031e-01   6   1   3   3
  3.4688715969220535e-01   6   1   4   1
  8.5601926128738159e-01   6   1   4   2
  4.6014484550713219e-02   6   1   4   3
  6.6045937488234330e-01   6   1   4   4
  7.5019103213538929e-01   6   1   5   1
  1.3386303526389809e-01   6   1   5   2
  9.8237820318519731e-01   6   1   5   3
  9.6259819158478435e-02   6   1   5   4
  2.8339061744101196e-01   6   1   5   5
  8.0230935777163415e-01   6   1   6   1
  7.8479472375573331e-02   6   2   1   1
  6.2775695362643458e-01   6   2   2   1
  9.0858179049823282e-03   6   2   2   2
  6.8060677237082501e-01   6   2   3   1
  5.3439917483184907e-01   6   2   3   2
  4.3922816501498058e-01   6   2   3   3
  2.0035166519195807e-01   6   2   4   1
  1.3886332479928068e-01   6   2   4   2
  3.8295060401722003e-01   6   2   4   3
  7.6265886353512546e-01   6   2   4   4
  4.1430640368647000e-02   6   2   5   1
  2.5370301813427254e-01   6   2   5   2
  5.0526622370018714e-01   6   2   5   3
  8.2278234678570006e-01   6   2   5   4
  9.8174139927347415e-01   6   2   5   5
  8.2363195909899767e-01   6   2   6   1
  3.0252548092529491e-01   6   2   6   2
  4.8896341142906440e-02   6   3   1   1
  2.4859975498155065e-01   6   3   2   1
  5.4451204571425060e-01   6   3   2   2
  8.8783840670375658e-01   6   3   3   1
  3.4449569639613703e-01   6   3   3   2
  3.4235299623775653e-02   6   3   3   3
  1.6370925143433071e-01   6   3   4   1
  8.7748655065811976e-01   6   3   4   2
  2.1109156707216731e-01   6   3   4   3
  2.7348028360061571e-01   6   3   4   4
  4.9294954665552548e-01   6   3   5   1
  2.2419652250743427e-01   6   3   5   2
  4.9081119488362251e-01   6   3   5   3
  9.5498843087724139e-01   6   3   5   4
  6.5231670325812374e-01   6   3   5   5
  7.5774613244636768e-01   6   3   6   1
  4.3581044030578803e-01   6   3   6   2
  5.5332832709479729e-01   6   3   6   3
  5.4099417780015015e-02   6   4   1   1
  3.2318823342639319e-01   6   4   2   1
  4.0557640220815971e-01   6   4   2   2
  9.0852518115960545e-01   6   4   3   1
  8.0932810587524928e-01   6   4   3   2
  2.5903760188060498e-01   6   4   3   3
  1.3071667855814811e-01   6   4   4   1
  4.9383352376848882e-01   6   4   4   2
  3.7912192842538300e-01   6   4   4   3
  7.1875147984955967e-01   6   4   4   4
  2.8851717933943138e-01   6   4   5   1
  6.2381214150831754e-01   6   4   5   2
  8.1206210686097990e-01   6   4   5   3
  3.1319547175198997e-01   6   4   5   4
  3.8632481135482150e-01   6   4   5   5
  3.4458582187749354e-01   6   4   6   1
  8.1595329555403273e-01   6   4   6   2
  6.6961585201799112e-01   6   4   6   3
  3.8003941785591761e-01   6   4   6   4
  4.5903840359124737e-01   6   5   1   1
  3.0431035742953816e-01   6   5   2   1
  9.1065442118474860e-01   6   5   2   2
  4.8912909688135203e-01   6   5   3   1
  7.5603410644813829e-01   6   5   3   2
  1.0895385365212408e-01   6   5   3   3
  3.9419626217847692e-01   6   5   4   1
  8.7031657856615752e-01   6   5   4   2
  3.6149985276879976e-01   6   5   4   3
  9.1720079785120590e-01   6   5   4   4
  5.4426169770040400e-01   6   5   5   1
  1.4100369403004431e-01   6   5   5   2
  2.0067299731699023e-01   6   5   5   3
  9.4897616156732956e-01   6   5   5   4
  9.9011984485466409e-01   6   5   5   5
  2.4083587384830754e-01   6   5   6   1
  1.7504063854475244e-02   6   5   6   2
  3.8922655707937809e-01   6   5   6   3
  7.7990967793968802e-01   6   5   6   4
  4.7716143353689872e-01   6   5   6   5
  5.4059786778724161e-01   6   6   1   1
  1.9432392629781990e-02   6   6   2   1
  9.0028301518630527e-01   6   6   2   2
  1.9530088832002546e-01   6   6   3   1
  8.8611212097910808e-01   6   6   3   2
  4.4178224078881778e-01   6   6   3   3
  1.4868118096112642e-01   6   6   4   1
  2.4026296106598743e-01   6   6   4   2
  7.9985352193201820e-01   6   6   4   3
  4.7354204522382071e-01   6   6   4   4
  9.0733333278398762e-02   6   6   5   1
  6.4490598318084513e-01   6   6   5   2
  6.3343060132786100e-01   6   6   5   3
  5.8479785101968595e-01   6   6   5   4
  7.2692772685503027e-01   6   6   5   5
  3.5528349506011436e-01   6   6   6   1
  6.8072623793232045e-01   6   6   6   2
  7.0761420219089100e-01   6   6   6   3
  1.6316618977040209e-01   6   6   6   4
  1.3460264827737378e-01   6   6   6   5
  4.5010651630868698e-01   6   6   6   6
  4.3012071276304666e-02   7   1   1   1
  7.9756674243561931e-01   7   1   2   1
  1.6838823407178385e-01   7   1   2   2
  8.3138307308254888e-01   7   1   3   1
  3.2563857213950254e-01   7   1   3   2
  6.5612411763970246e-01   7   1   3   3
  4.2076976166909086e-01   7   1   4   1
  7.8212724264821565e-01   7   1   4   2
  1.1407934351902232e-01   7   1   4   3
  9.9354118324360585e-01   7   1   4   4
  1.8239140616525426e-01   7   1   5   1
  7.6316848551207539e-01   7   1   5   2
  2.6665473352470226e-01   7   1   5   3
  2.4489412604922550e-01   7   1   5   4
  1.0163775307582704e-01   7   1   5   5
  3.4498359091443020e-01   7   1   6   1
  2.8234571373438150e-01   7   1   6   2
  9.6867173509650084e-01   7   1   6   3
  2.1455896595339058e-01   7   1   6   4
  6.0632228185728321e-01   7   1   6   5
  2.2732476851280289e-01   7   1   6   6
  1.9071559628881857e-01   7   1   7   1
  4.0216990680465536e-01   7   2   1   1
  4.1387734004352450e-01   7   2   2   1
  1.7098212648356240e-01   7   2   2   2
  2.9975276375363030e-01   7   2   3   1
  6.3683209987476463e-01   7   2   3   2
  1.5242258426967756e-01   7   2   3   3
  7.6947393594006863e-01   7   2   4   1
  8.8408463217846611e-01   7   2   4   2
  9.5926238381217299e-01   7   2   4   3
  1.9048203986457912e-02   7   2   4   4
  5.8326353829619193e-01   7   2   5   1
  7.6708723143129931e-01   7   2   5   2
  3.2846996744084389e-01   7   2   5   3
  1.2993709805352183e-01   7   2   5   4
  2.9266882337537786e-01   7   2   5   5
  8.4726253924761352e-01   7   2   6   1
  2.3153362830577098e-01   7   2   6   2
  5.0247241110393204e-01   7   2   6   3
  2.5963061498719261e-03   7   2   6   4
  1.3526264587342685e-02   7   2   6   5
  2.8729999067687262e-01   7   2   6   6
  9.9600342999520267e-02   7   2   7   1
  3.8537045176346246e-01   7   2   7   2
  3.5599334309274133e-01   7   3   1   1
  7.2025096486481588e-01   7   3   2   1
  6.6379619664989203e-02   7   3   2   2
  5.1434532718118553e-01   7   3   3   1
  4.2455435480259135e-01   7   3   3   2
  6.9011145811302832e-01   7   3   3   3
  2.5468916316971241e-01   7   3   4   1
  4.0211803964349491e-01   7   3   4   2
  2.6521207510047068e-01   7   3   4   3
  9.3431633575615858e-01   7   3   4   4
  4.7305271622143891e-01   7   3   5   1
  6.1130527827879011e-01   7   3   5   2
  4.8891348391181882e-01   7   3   5   3
  5.1500504747013209e-01   7   3   5   4
  2.4577422971318932e-01   7   3   5   5
  3.3367223546786517e-01   7   3   6   1
  5.0286001390908497e-01   7   3   6   2
  5.9646187559553554e-01   7   3   6   3
  3.1084584186747938e-01   7   3   6   4
  9.6303452355897967e-01   7   3   6   5
  2.3316795433678245e-01   7   3   6   6
  7.4715730218891563e-01   7   3   7   1
  3.2321042620692664e-01   7   3   7   2
  3.1891390893808969e-01   7   3   7   3
  9.5251956189041009e-01   7   4   1   1
  5.3518632463512250e-01   7   4   2   1
  8.7193334748022933e-01   7   4   2   2
  9.3466804724917141e-01   7   4   3   1
  6.6744696899506450e-01   7   4   3   2
  2.9039971620534388e-01   7   4   3   3
  6.6458937175183183e-02   7   4   4   1
  2.3265672756608799e-01   7   4   4   2
  7.0501899665377976e-01   7   4   4   3
  1.9591229374956234e-01   7   4   4   4
  4.2279617040975614e-01   7   4   5   1
  9.3611900902517986e-01   7   4   5   2
  1.4307498722965867e-01   7   4   5   3
  6.4353782370787638e-01   7   4   5   4
  4.7325940733252331e-01   7   4   5   5
  4.3749597766165249e-01   7   4   6   1
  2.4507532056047562e-01   7   4   6   2
  5.0641349581500705e-01   7   4   6   3
  9.0703714898796439e-01   7   4   6   4
  7.7427469511758037e-02   7   4   6   5
  7.1419001661199499e-01   7   4   6   6
  6.1758771183773564e-01   7   4   7   1
  1.8989511036676085e-01   7   4   7   2
  3.9758482440946646e-01   7   4   7   3
  2.7838639316880398e-01   7   4   7   4
  8.5824120213716715e-01   7   5   1   1
  9.0902763813742182e-01   7   5   2   1
  6.1766180587708552e-01   7   5   2   2
  1.8163788401014241e-01   7   5   3   1
  5.1550869594592263e-01   7   5   3   2
  8.2480707470739545e-01   7   5   3   3
  3.5996511322893654e-01   7   5   4   1
  8.1630090377234665e-01   7   5   4   2
  2.9409485551716752e-01   7   5   4   3
  1.7294569315714789e-01   7   5   4   4
  4.9329679767627044e-01   7   5   5   1
  1.9612944456097606e-01   7   5   5   2
  8.6444318482673732e-01   7   5   5   3
  2.0499296966758510e-01   7   5   5   4
  6.1665600383750951e-01   7   5   5   5
  8.7817250025637428e-01   7   5   6   1
  3.9307661757907170e-01   7   5   6   2
  9.4663067790554478e-01   7   5   6   3
  1.6753157028512103e-01   7   5   6   4
  9.7190552319256829e-01   7   5   6   5
  5.6440092971092393e-01   7   5   6   6
  5.9877054298676624e-01   7   5   7   1
  1.3209062853893130e-01   7   5   7   2
  5.6721061801918005e-01   7   5   7   3
  5.5482589061047627e-01   7   5   7   4
  3.1117947059011869e-01   7   5   7   5
  1.2152828201288303e-01   7   6   1   1
  7.3805302929102268e-01   7   6   2   1
  2.4348092886749362e-01   7   6   2   2
  8.2303628811319529e-01   7   6   3   1
  1.8629049526803693e-01   7   6   3   2
  3.1336426158644126e-01   7   6   3   3
  8.8184368927122248e-01   7   6   4   1
  6.7453873314454249e-01   7   6   4   2
  7.3955825917398321e-01   7   6   4   3
  6.3480697143023887e-02   7   6   4   4
  1.3243000005666133e-01   7   6   5   1
  9.0862955752989430e-02   7   6   5   2
  9.3061308596530321e-03   7   6   5   3
  4.5705390144075331e-01   7   6   5   4
  6.3466901743005677e-01   7   6   5   5
  5.3023322928470207e-01   7   6   6   1
  4.9837155904729297e-01   7   6   6   2
  3.3646210060926351e-01   7   6   6   3
  2.5357052593833473e-01   7   6   6   4
  2.3444176594776095e-01   7   6   6   5
  1.7398986874937450e-01   7   6   6   6
  5.9638504927343050e-01   7   6   7   1
  7.2716625068425778e-01   7   6   7   2
  8.7769551972033000e-01   7   6   7   3
  7.0745256694906644e-01   7   6   7   4
  2.3553083774096284e-01   7   6   7   5
  4.7851775060965718e-01   7   6   7   6
  1.9193551213069475e-02   7   7   1   1
  7.4758386747478589e-01   7   7   2   1
  6.5506885786949531e-01   7   7   2   2
  7.8988875407294892e-02   7   7   3   1
  4.7329633172752195e-01   7   7   3   2
  9.9647859198437427e-01   7   7   3   3
  5.3256542460633249e-01   7   7   4   1
  8.9953657031214818e-01   7   7   4   2
  7.7312802635611000e-01   7   7   4   3
  2.0455593625305526e-01   7   7   4   4
  9.0720151365117285e-01   7   7   5   1
  3.7543774878388764e-01   7   7   5   2
  8.4824079907601746e-01   7   7   5   3
  3.2737254667998616e-01   7   7   5   4
  3.2740992350595599e-01   7   7   5   5
  6.5955140919039656e-01   7   7   6   1
  5.8717821735906450e-01   7   7   6   2
  4.9934219118787461e-02   7   7   6   3
  7.7019569984842884e-01   7   7   6   4
  4.9226041885940502e-01   7   7   6   5
  4.8869583105629383e-01   7   7   6   6
  4.2969744417061739e-01   7   7   7   1
  3.9533298767415403e-01   7   7   7   2
  7.7667734765124852e-01   7   7   7   3
  9.7477963210151652e-01   7   7   7   4
  7.4875665423144899e-01   7   7   7   5
  6.3486750182608453e-01   7   7   7   6
  7.3108078480043442e-02   7   7   7   7
  6.3372993359525975e-01   8   1   1   1
  5.2939171192948009e-01   8   1   2   1
  2.9687148355616660e-01   8   1   2   2
  3.2600254124432804e-01   8   1   3   1
  6.3148880433112697e-01   8   1   3   2
  9.9451091715246231e-01   8   1   3   3
  5.1653177900337877e-01   8   1   4   1
  7.2472945979078329e-01   8   1   4   2
  2.4632917356249892e-01   8   1   4   3
  3.3300677655071037e-01   8   1   4   4
  7.4886050637783541e-01   8   1   5   1
  6.8328351897695583e-01   8   1   5   2
  6.8159009915439495e-01   8   1   5   3
  7.9763529937795286e-02   8   1   5   4
  4.5947735121683764e-01   8   1   5   5
  6.9844871242321782e-01   8   1   6   1
  6.8816946646136343e-02   8   1   6   2
  7.0070912897634563e-02   8   1   6   3
  5.2751577500801139e-01   8   1   6   4
  2.6278674987999823e-01   8   1   6   5
  4.8389178729188748e-01   8   1   6   6
  1.3167465888699881e-01   8   1   7   1
  9.5346327810773374e-02   8   1   7   2
  1.2126130023610224e-01   8   1   7   3
  9.6986736863212053e-01   8   1   7   4
  7.5652536384427893e-01   8   1   7   5
  2.6890820221930545e-01   8   1   7   6
  7.2518107755150096e-01   8   1   7   7
  4.1634674816170386e-01   8   1   8   1
  4.7524368342977158e-01   8   2   1   1
  5.6385984986968229e-02   8   2   2   1
  6.1413039894428489e-01   8   2   2   2
  4.9112856565915175e-01   8   2   3   1
  9.0457039219092683e-01   8   2   3   2
  9.3527905592823757e-01   8   2   3   3
  9.1835834306427655e-01   8   2   4   1
  3.0452144596729541e-01   8   2   4   2
  7.9031167501782718e-01   8   2   4   3
  2.2700118048165877e-01   8   2   4   4
  4.4950291060603670e-01   8   2   5   1
  5.1059880407356117e-01   8   2   5   2
  2.3140129347464736e-01   8   2   5   3
  7.1216889918538939e-01   8   2   5   4
  9.8446815715157066e-01   8   2   5   5
  6.5555803494972065e-01   8   2   6   1
  2.7339431585817364e-01   8   2   6   2
  4.6954654768411691e-01   8   2   6   3
  3.9982040510337562e-03   8   2   6   4
  4.4697750908426365e-01   8   2   6   5
  9.7097320614717653e-01   8   2   6   6
  3.0535883662503899e-01   8   2   7   1
  2.1589393559120468e-01   8   2   7   2
  2.4833748698697558e-01   8   2   7   3
  8.0664457556482572e-01   8   2   7   4
  4.8688472749425532e-01   8   2   7   5
  4.0809441372217525e-01   8   2   7   6
  2.1641366486507757e-01   8   2   7   7
  5.4071183488787355e-01   8   2   8   1
  7.2330121327722063e-01   8   2   8   2
  2.8441022215685385e-01   8   3   1   1
  5.4331923521439396e-01   8   3   2   1
  7.5616876018109924e-01   8   3   2   2
  3.3264530914616930e-01   8   3   3   1
  8.0196121043141622e-01   8   3   3   2
  8.5721535945772021e-01   8   3   3   3
  1.5876808598575771e-02   8   3   4   1
  8.8505772260913473e-01   8   3   4   2
  5.9349385382822029e-01   8   3   4   3
  8.7131011813884218e-02   8   3   4   4
  9.2495106648342529e-01   8   3   5   1
  9.1380585248108959e-01   8   3   5   2
  9.8077601836250317e-01   8   3   5   3
  9.0012208726171006e-01   8   3   5   4
  9.4976486937650439e-01   8   3   5   5
  9.3458743270276357e-01   8   3   6   1
  9.3159467222489745e-03   8   3   6   2
  7.7801623707757117e-01   8   3   6   3
  2.6932918864821305e-02   8   3   6   4
  5.8828917257551239e-01   8   3   6   5
  6.5013098992537066e-01   8   3   6   6
  3.2890821846504564e-01   8   3   7   1
  1.1196828265401462e-01   8   3   7   2
  1.2514838504202119e-01   8   3   7   3
  9.7394114393244668e-01   8   3   7   4
  5.3369624112203407e-01   8   3   7   5
  6.6263798156457088e-01   8   3   7   6
  7.0854937487689673e-01   8   3   7   7
  6.9669841251770920e-02   8   3   8   1
  2.0674962282282011e-01   8   3   8   2
  4.3399624699394745e-01   8   3   8   3
  1.2181393882512867e-02   8   4   1   1
  7.0193263200596878e-02   8   4   2   1
  3.4371874814345138e-01   8   4   2   2
  3.1291785042845816e-01   8   4   3   1
  9.9274987234120882e-01   8   4   3   2
  2.6979527187352037e-01   8   4   3   3
  8.5720917505423333e-01   8   4   4   1
  3.5625530414062417e-01   8   4   4   2
  7.4702151149389240e-01   8   4   4   3
  8.4501141341568331e-01   8   4   4   4
  2.1792148471574524e-01   8   4   5   1
  9.6498722696907491e-01   8   4   5   2
  7.1248046043840785e-01   8   4   5   3
  9.8268520007368121e-01   8   4   5   4
  7.6013910595005640e-01   8   4   5   5
  1.9406711448767786e-01   8   4   6   1
  3.5323692169514065e-01   8   4   6   2
  1.9710404134106951e-01   8   4   6   3
  8.3223585930722133e-01   8   4   6   4
  9.5264217232323978e-01   8   4   6   5
  7.6760268170350643e-01   8   4   6   6
  8.6210684048842934e-01   8   4   7   1
  4.5620807366342930e-01   8   4   7   2
  3.3335115554498690e-01   8   4   7   3
  8.3842170344949130e-01   8   4   7   4
  5.5475448086413659e-01   8   4   7   5
  1.2174470722196865e-01   8   4   7   6
  2.1297154596069387e-01   8   4   7   7
  4.9174801618495684e-01   8   4   8   1
  4.1024514290252895e-01   8   4   8   2
  7.5975197814868778e-01   8   4   8   3
  3.5770716171147493e-01   8   4   8   4
  7.7201426974936305e-01   8   5   1   1
  9.8155886481859145e-01   8   5   2   1
  8.4631556041272593e-01   8   5   2   2
  8.3478700388309690e-01   8   5   3   1
  3.6782728706763101e-01   8   5   3   2
  5.1575318223753448e-02   8   5   3   3
  9.7558603854600312e-01   8   5   4   1
  8.4274670419315068e-01   8   5   4   2
  8.6959092802276439e-01   8   5   4   3
  7.6422934110453283e-02   8   5   4   4
  3.3343692282800722e-02   8   5   5   1
  6.1431787437445773e-01   8   5   5   2
  7.3594460540366469e-01   8   5   5   3
  6.1591227647309366e-01   8   5   5   4
  6.6296744937112229e-01   8   5   5   5
  9.5131316197963511e-01   8   5   6   1
  2.6662162718372645e-01   8   5   6   2
  9.1946634078006684e-01   8   5   6   3
  1.1927815113182705e-01   8   5   6   4
  3.1375264021799898e-01   8   5   6   5
  8.7224328444877364e-01   8   5   6   6
  2.3441005256512878e-01   8   5   7   1
  8.0825043614595282e-01   8   5   7   2
  5.5697523498751988e-01   8   5   7   3
  9.4364871826598706e-01   8   5   7   4
  5.0419975935955141e-01   8   5   7   5
  6.6675040830598753e-01   8   5   7   6
  1.5381276688924014e-01   8   5   7   7
  9.7325554603420361e-01   8   5   8   1
  6.3413314045869873e-01   8   5   8   2
  1.7947113318159250e-01   8   5   8   3
  7.5068661378197538e-02   8   5   8   4
  4.9547980554027005e-01   8   5   8   5
  7.8619392745394534e-01   8   6   1   1
  4.6521505920725947e-01   8   6   2   1
  8.8314862935379890e-01   8   6   2   2
  6.4772153059331361e-01   8   6   3   1
  9.0333772852746641e-01   8   6   3   2
  6.9676410930011399e-03   8   6   3   3
  6.9386824657356405e-01   8   6   4   1
  5.8550455486053099e-01   8   6   4   2
  1.0625593112940036e-01   8   6   4   3
  9.9032957677673938e-01   8   6   4   4
  2.3076203326190695e-01   8   6   5   1
  3.3357492586719756e-01   8   6   5   2
  6.8969346842882062e-01   8   6   5   3
  9.6145932517787591e-01   8   6   5   4
  2.2737249416174998e-01   8   6   5   5
  9.2431716445206791e-01   8   6   6   1
  8.7636994494336806e-01   8   6   6   2
  4.3231278460591993e-01   8   6   6   3
  4.7141652118085936e-01   8   6   6   4
  5.6254037749998009e-01   8   6   6   5
  8.3777779675517161e-01   8   6   6   6
  1.4916057025511703e-01   8   6   7   1
  6.3963890461311612e-01   8   6   7   2
  9.9559809341320371e-01   8   6   7   3
  6.3975470930793044e-01   8   6   7   4
  4.4007880641472452e-01   8   6   7   5
  2.9359961647251211e-02   8   6   7   6
  8.4067750648402856e-02   8   6   7   7
  5.3083681801781191e-01   8   6   8   1
  7.8221951213281837e-01   8   6   8   2
  7.3690857999838433e-01   8   6   8   3
  1.9097080646818365e-01   8   6   8   4
  2.6256543628362849e-01   8   6   8   5
  4.5279252354171445e-01   8   6   8   6
  4.6056685791483193e-01   8   7   1   1
  6.7396350600442867e-01   8   7   2   1
  1.7777611923695330e-01   8   7   2   2
  1.8864300454698052e-01   8   7   3   1
  9.7390325657771712e-02   8   7   3   2
  3.2455073257462635e-01   8   7   3   3
  1.7115616848017065e-01   8   7   4   1
  2.5709338763654058e-02   8   7   4   2
  8.3081234165909013e-01   8   7   4   3
  2.4558355588820022e-01   8   7   4   4
  1.4289297242639165e-01   8   7   5   1
  1.5628652577454571e-01   8   7   5   2
  3.0370771399045426e-01   8   7   5   3
  3.4538745249277414e-02   8   7   5   4
  4.0988009251923607e-01   8   7   5   5
  7.8334052173023905e-01   8   7   6   1
  4.4392853985190395e-01   8   7   6   2
  1.8470722839504572e-02   8   7   6   3
  2.8649858112261722e-01   8   7   6   4
  9.5144530441159070e-01   8   7   6   5
  1.7214370917007679e-01   8   7   6   6
  9.5055681268823383e-02   8   7   7   1
  2.7463783631030275e-01   8   7   7   2
  2.0216257203162802e-01   8   7   7   3
  7.5336323888630907e-01   8   7   7   4
  8.0107854146368374e-01   8   7   7   5
  5.8649810298006078e-01   8   7   7   6
  4.9749752514401635e-01   8   7   7   7
  5.9138227165740676e-01   8   7   8   1
  5.6922273137383150e-01   8   7   8   2
  1.8591290806404637e-01   8   7   8   3
  9.0175498350879257e-01   8   7   8   4
  2.5437684474983742e-02   8   7   8   5
  2.6511209781185291e-01   8   7   8   6
  7.8273274838279949e-01   8   7   8   7
  6.0010241695592648e-01   8   8   1   1
  5.5665922112946054e-01   8   8   2   1
  9.7436213687850340e-02   8   8   2   2
  9.2686025305849273e-01   8   8   3   1
  3.9899292579734841e-01   8   8   3   2
  4.0863037480213381e-02   8   8   3   3
  5.8553166099215115e-01   8   8   4   1
  4.1380172086525996e-01   8   8   4   2
  1.3040388104552655e-01   8   8   4   3
  6.0933003610051129e-01   8   8   4   4
  5.6351009547649662e-02   8   8   5   1
  8.4844746216858113e-01   8   8   5   2
  4.5261185466823145e-01   8   8   5   3
  4.8552936409066866e-01   8   8   5   4
  6.8379407428449265e-02   8   8   5   5
  2.2178487789409304e-01   8   8   6   1
  6.4472036165163871e-01   8   8   6   2
  9.7585599327304351e-01   8   8   6   3
  9.4939300117570924e-01   8   8   6   4
  7.3673601849896109e-01   8   8   6   5
  4.2143275866782487e-01   8   8   6   6
  6.8604810072385780e-01   8   8   7   1
  6.8652986751441147e-01   8   8   7   2
  2.3203499938444297e-01   8   8   7   3
  9.9477997830756593e-01   8   8   7   4
  4.3615747914534481e-01   8   8   7   5
  7.4404884082159684e-01   8   8   7   6
  3.3871248778622060e-01   8   8   7   7
  3.6355285287701183e-01   8   8   8   1
  9.8989336857286703e-01   8   8   8   2
  7.2535319973919732e-01   8   8   8   3
  8.3766914510793677e-01   8   8   8   4
  3.9863738930252035e-01   8   8   8   5
  8.5184404622112719e-01   8   8   8   6
  1.7243131218897739e-01   8   8   8   7
  9.4744686296983915e-01   8   8   8   8
  3.5154574928861448e-01   9   1   1   1
  3.8549375482664244e-01   9   1   2   1
  4.0033029749002585e-01   9   1   2   2
  7.1864806073502863e-01   9   1   3   1
  8.3608161210827181e-01   9   1   3   2
  9.5092336963815360e-01   9   1   3   3
  6.4917477808567631e-02   9   1   4   1
  6.6486114854922029e-01   9   1   4   2
  1.7713522426371786e-01   9   1   4   3
  3.7158711025149971e-01   9   1   4   4
  1.6923150694396719e-01   9   1   5   1
  1.1408948886441668e-01   9   1   5   2
  1.5342086932628185e-01   9   1   5   3
  3.9612126847890511e-01   9   1   5   4
  3.9707865294187883e-01   9   1   5   5
  2.8936533200633968e-02   9   1   6   1
  4.5058223541932646e-01   9   1   6   2
  9.9445240548688627e-02   9   1   6   3
  9.1610179346483522e-01   9   1   6   4
  4.6685070051231420e-01   9   1   6   5
  7.4937966638379117e-01   9   1   6   6
  7.2959994953332097e-01   9   1   7   1
  7.3657063958664071e-01   9   1   7   2
  6.5689174022227315e-01   9   1   7   3
  2.1658746210457697e-01   9   1   7   4
  5.2441153697403764e-02   9   1   7   5
  5.9639842463937248e-02   9   1   7   6
  4.2198541715508436e-01   9   1   7   7
  8.1060000517411113e-01   9   1   8   1
  3.1750230813366437e-01   9   1   8   2
  8.8420755859431832e-01   9   1   8   3
  4.0969901414088677e-01   9   1   8   4
  2.0236542208474198e-01   9   1   8   5
  2.6474161987510604e-02   9   1   8   6
  6.7374002031859365e-02   9   1   8   7
  6.7672039918420968e-01   9   1   8   8
  8.1994408762671819e-02   9   1   9   1
  3.3008212292906375e-01   9   2   1   1
  3.7021019642664710e-01   9   2   2   1
  7.9706061833420072e-01   9   2   2   2
  1.7730873257856472e-01   9   2   3   1
  9.3617736894520506e-02   9   2   3   2
  6.0554916442741559e-02   9   2   3   3
  2.8761972738523900e-01   9   2   4   1
  7.1626991412123420e-01   9   2   4   2
  4.9404830433135899e-01   9   2   4   3
  9.0521940187625827e-01   9   2   4   4
  4.0514850712672162e-01   9   2   5   1
  6.8308926552199181e-02   9   2   5   2
  3.7564962499428262e-01   9   2   5   3
  8.4872998938974342e-01   9   2   5   4
  3.6534338554488333e-01   9   2   5   5
  1.4346856874422773e-01   9   2   6   1
  4.2227785559327374e-01   9   2   6   2
  8.6909359523722407e-01   9   2   6   3
  9.9704435827473070e-01   9   2   6   4
  5.3415879620417206e-01   9   2   6   5
  3.9517178857404828e-01   9   2   6   6
  3.3293407958525073e-01   9   2   7   1
  4.3988749240407111e-02   9   2   7   2
  8.5665881567861368e-01   9   2   7   3
  1.8151241289923162e-01   9   2   7   4
  3.3398284366487430e-01   9   2   7   5