 &FCI NORB= 16,NELEC= 16,MS2= 0,
  ORBSYM=1,1,1,1,1,1,1,1,1,1,1,1,1,1,1,1,
  ISYM=1,
 /
  1.3547700429678050e-01   1   1   1   1
  8.3500858999457950e-01   2   2   2   2
  4.8443388556211570e-01   2   2   2   1
  4.4206808596540983e-02   2   2   1   1
  6.1633410101400658e-02   2   1   2   1
  2.7361029818392596e-01   2   1   1   1
  1.8838197604718110e-01   3   3   3   3
  4.9644065095890333e-01   3   3   3   1
  1.9929226510960174e-01   3   3   1   1
  1.9353898740210052e-01   3   1   3   1
  3.6291948160594484e-01   3   1   1   1
  4.9055484588846948e-01   3   3   3   2
  2.1972350168841286e-02   3   3   2   2
  1.5962117134990991e-01   3   2   3   2
  1.4851472477897543e-01   3   2   2   2
  9.5669688386313366e-04   3   3   2   1
  2.2492903211236061e-02   3   2   3   1
  1.2795267141963057e-01   3   2   2   1
  1.7568612907976877e-01   2   2   3   1
  1.0073253554103395e-01   3   2   1   1
  1.5958572303204521e-01   3   1   2   1
  3.6129400134918088e-01   4   4   4   4
  1.0596216619586681e-01   4   4   4   1
  1.3627190771205319e-01   4   4   1   1
  7.9747703982458229e-02   4   1   4   1
  3.7032362233821070e-01   4   1   1   1
  2.3737934030861738e-01   4   4   4   2
  8.4417536221082654e-02   4   4   2   2
  3.4773034400096069e-02   4   2   4   2
  1.5095656343865985e-01   4   2   2   2
  1.5945598304765515e-01   4   4   2   1
  6.3310088963798847e-02   4   2   4   1
  1.7448576401346005e-01   4   2   2   1
  2.9822795281474079e-02   2   2   4   1
  1.9881369886440839e-01   4   2   1   1
  1.6438065296148219e-01   4   1   2   1
  6.2591382266817222e-02   4   4   4   3
  1.5275000251443591e-01   4   4   3   3
  9.8117807924292144e-02   4   3   4   3
  3.3180276025487648e-01   4   3   3   3
  2.5179326694400251e-02   4   4   3   1
  4.2041814903801239e-02   4   3   4   1
  1.0243285157043338e-02   4   3   3   1
  7.2882503175735434e-03   3   3   4   1
  8.1746232192352081e-02   4   3   1   1
  9.1597831085778986e-02   4   1   3   1
  9.7513785373679662e-02   4   4   3   2
  1.5879499430983857e-01   4   3   4   2
  1.8417495823043237e-01   4   3   3   2
  1.6150620508728022e-01   3   3   4   2
  1.4115485033374398e-01   4   3   2   2
  5.6368651239679566e-04   4   2   3   2
  7.1070387509071686e-02   4   3   2   1
  6.4396095652194049e-02   4   2   3   1
  4.5603282449743654e-02   4   1   3   2
  7.7391712891365494e-01   5   5   5   5
  2.8687733329829573e-01   5   5   5   1
  1.7535148301815551e-01   5   5   1   1
  1.6163509802824202e-01   5   1   5   1
  8.8869477882762369e-03   5   1   1   1
  4.1062299578348954e-01   5   5   5   2
  1.6416815683502217e-01   5   5   2   2
  1.8801480575958068e-01   5   2   5   2
  2.0633325745573694e-01   5   2   2   2
  8.4633023286746045e-02   5   5   2   1
  1.1619133553278127e-01   5   2   5   1
  3.1611516910941134e-02   5   2   2   1
  1.5234624273789232e-01   2   2   5   1
  4.6031212906785968e-02   5   2   1   1
  1.6194690974697046e-01   5   1   2   1
  4.9426080040176368e-01   5   5   5   3
  6.6489656467655783e-02   5   5   3   3
  5.9966341164628269e-02   5   3   5   3
  6.7695633326104107e-03   5   3   3   3
  4.3447567891760901e-02   5   5   3   1
  1.8147294355323462e-01   5   3   5   1
  1.6969355839288772e-01   5   3   3   1
  1.9100351469829138e-01   3   3   5   1
  1.5577954201102465e-01   5   3   1   1
  1.9749192537149829e-01   5   1   3   1
  1.3519076227753403e-02   5   5   3   2
  1.5871951630482584e-01   5   3   5   2
  1.1890071223421322e-01   5   3   3   2
  1.4655974505235086e-01   3   3   5   2
  1.3904657675499069e-01   5   3   2   2
  1.3596395814259718e-01   5   2   3   2
  3.9232046919809666e-02   5   3   2   1
  5.6155744235816624e-02   5   2   3   1
  2.0806805705196361e-02   5   1   3   2
  2.6368572930430778e-01   5   5   5   4
  8.0841703623340200e-02   5   5   4   4
  7.0552481620290791e-02   5   4   5   4
  2.9641193925994419e-01   5   4   4   4
  7.1269032116009254e-02   5   5   4   1
  1.9299327442115222e-01   5   4   5   1
  3.0887683487027241e-02   5   4   4   1
  7.8981642125585283e-02   4   4   5   1
  7.7459181028855531e-02   5   4   1   1
  1.4539094432312538e-01   5   1   4   1
  7.7713961495883888e-02   5   5   4   2
  1.8549856833006173e-01   5   4   5   2
  8.7223512995721994e-02   5   4   4   2
  1.7253563740808586e-01   4   4   5   2
  1.2407200264411666e-01   5   4   2   2
  2.3909436220566221e-02   5   2   4   2
  4.7195680174091412e-02   5   4   2   1
  3.4021969914039864e-02   5   2   4   1
  5.2984198849976044e-02   5   1   4   2
  1.4322014193466001e-01   5   5   4   3
  1.9767587952074372e-01   5   4   5   3
  1.4409869226862404e-01   5   4   4   3
  1.8251549839432452e-01   4   4   5   3
  1.0109970105015567e-01   5   4   3   3
  1.1165375127053528e-01   5   3   4   3
  5.0319002106608314e-02   5   4   3   1
  4.6247420642194732e-02   5   3   4   1
  5.4659196188169126e-02   5   1   4   3
  4.4758440204806044e-02   5   4   3   2
  8.5445098673882336e-02   5   3   4   2
  6.0423148433740220e-02   5   2   4   3
  4.9854418637851550e-01   6   6   6   6
  4.8996280238054435e-01   6   6   6   1
  6.8634626457763012e-03   6   6   1   1
  1.9540040692197674e-01   6   1   6   1
  1.8159323043857040e-01   6   1   1   1
  3.3975984690113631e-01   6   6   6   2
  6.9246678617058133e-02   6   6   2   2
  1.7117502728476108e-01   6   2   6   2
  2.2529772047404015e-02   6   2   2   2
  1.3202389887534402e-01   6   6   2   1
  1.4998819462169957e-01   6   2   6   1
  2.6599206259038655e-02   6   2   2   1
  1.9647211274978926e-01   2   2   6   1
  1.9071034866562253e-02   6   2   1   1
  5.6534658146348740e-02   6   1   2   1
  4.0105573462043753e-01   6   6   6   3
  1.5511405880995664e-02   6   6   3   3
  1.2547686759287979e-01   6   3   6   3
  4.0469559083995644e-03   6   3   3   3
  1.3605741188605106e-01   6   6   3   1
  1.0678662158795778e-01   6   3   6   1
  8.7733366369365490e-02   6   3   3   1
  3.9910243281673287e-02   3   3   6   1
  2.7600265225081216e-02   6   3   1   1
  7.6466587390834839e-02   6   1   3   1
  1.5248425696398910e-01   6   6   3   2
  8.0942222960254245e-03   6   3   6   2
  5.0591194821676191e-02   6   3   3   2
  1.0095419893897642e-01   3   3   6   2
  1.6452099034748752e-01   6   3   2   2
  1.9634462447917400e-01   6   2   3   2
  8.2345541451351131e-02   6   3   2   1
  3.0182730823352846e-02   6   2   3   1
  4.7944285428334777e-03   6   1   3   2
  1.2392380129206740e-01   6   6   6   4
  1.0881122036321333e-01   6   6   4   4
  1.7754522656731864e-01   6   4   6   4
  1.7191976796603456e-01   6   4   4   4
  6.6537136383935241e-03   6   6   4   1
  3.2574424711577725e-02   6   4   6   1
  1.7547278291453849e-01   6   4   4   1
  4.2060373788221687e-02   4   4   6   1
  5.4550607327450595e-02   6   4   1   1
  9.8488397728833943e-02   6   1   4   1
  4.4683988489976831e-02   6   6   4   2
  9.8060299276000518e-02   6   4   6   2
  1.9098867485029858e-01   6   4   4   2
  1.3039373438601076e-01   4   4   6   2
  1.5150072721649002e-01   6   4   2   2
  8.7049137198355969e-02   6   2   4   2
  5.5288120830310039e-02   6   4   2   1
  5.3152570350365382e-03   6   2   4   1
  3.2251074417056373e-02   6   1   4   2
  8.0996276718350302e-02   6   6   4   3
  1.8168672295487598e-01   6   4   6   3
  1.6182744862367354e-01   6   4   4   3
  5.1659179555676671e-02   4   4   6   3
  2.5969305016646273e-02   6   4   3   3
  9.8665370123821594e-02   6   3   4   3
  3.7850042885423728e-02   6   4   3   1
  7.1846994979935908e-02   6   3   4   1
  2.8780498432375512e-02   6   1   4   3
  6.2343557708540304e-02   6   4   3   2
  8.1187398084182183e-02   6   3   4   2
  3.1250797973172172e-02   6   2   4   3
  1.9285526093834909e-01   6   6   6   5
  6.8785950325824533e-02   6   6   5   5
  1.6315381292373030e-01   6   5   6   5
  3.3464256857757313e-01   6   5   5   5
  7.5883767338522048e-02   6   6   5   1
  9.1699380098347827e-02   6   5   6   1
  6.0722794280187821e-02   6   5   5   1
  1.8211299723418392e-01   5   5   6   1
  9.7723542919189610e-02   6   5   1   1
  1.5115797926889657e-01   6   1   5   1
  2.1612383113538358e-02   6   6   5   2
  7.8717970406101498e-02   6   5   6   2
  1.7403735306629781e-01   6   5   5   2
  7.2172142696456415e-02   5   5   6   2
  1.8342358315339458e-01   6   5   2   2
  1.0876110064072153e-01   6   2   5   2
  1.4014383786791224e-02   6   5   2   1
  1.9987287018717742e-02   6   2   5   1
  9.4892508665398362e-02   6   1   5   2
  1.9802199096189474e-01   6   6   5   3
  4.8015189959621132e-02   6   5   6   3
  3.3041168877828314e-03   6   5   5   3
  7.7723034450325953e-02   5   5   6   3
  1.5593787346139901e-01   6   5   3   3
  9.5327614321701448e-02   6   3   5   3
  5.4013800579303467e-02   6   5   3   1
  1.8450843473255246e-03   6   3   5   1
  9.0018319838469002e-02   6   1   5   3
  1.9449538370372919e-02   6   5   3   2
  8.8599811909820636e-02   6   3   5   2
  4.4122346425307088e-02   6   2   5   3
  2.9565801994219505e-02   6   6   5   4
  4.7900492705903394e-02   6   5   6   4
  1.5993063502142507e-01   6   5   5   4
  9.4603012056820979e-02   5   5   6   4
  1.7964631286966719e-02   6   5   4   4
  1.2891010674291195e-01   6   4   5   4
  6.3306366499285380e-02   6   5   4   1
  5.8438223325293893e-02   6   4   5   1
  7.2665438123626663e-02   6   1   5   4
  3.5463813319330767e-02   6   5   4   2
  6.8040664457689734e-02   6   4   5   2
  7.0732152371460563e-02   6   2   5   4
  1.6232851828869077e-02   6   5   4   3
  1.3373638466203583e-02   6   4   5   3
  4.4955607238106807e-02   6   3   5   4
  4.2054125401706374e-02   7   7   7   7
  3.9868205327108075e-01   7   7   7   1
  3.3511157972329099e-02   7   7   1   1
  1.6624285747398376e-01   7   1   7   1
  1.6248176783758886e-01   7   1   1   1
  3.2788994876861988e-01   7   7   7   2
  8.4037990324142317e-02   7   7   2   2
  1.5638183036000314e-01   7   2   7   2
  5.6596268027538699e-02   7   2   2   2
  1.9870694359231350e-01   7   7   2   1
  3.6314595828879734e-02   7   2   7   1
  1.5258628338580088e-01   7   2   2   1
  5.3184130835776236e-02   2   2   7   1
  4.8827652862707814e-02   7   2   1   1
  2.0147698313478887e-02   7   1   2   1
  1.7216395941663173e-01   7   7   7   3
  5.6325468215091393e-02   7   7   3   3
  1.9372807509439458e-01   7   3   7   3
  1.0688636934604133e-01   7   3   3   3
  1.2118564201347011e-01   7   7   3   1
  4.5310263966527105e-02   7   3   7   1
  3.7981100358121835e-02   7   3   3   1
  8.0314295656587667e-02   3   3   7   1
  8.2658126134839749e-02   7   3   1   1
  3.4030455752464946e-02   7   1   3   1
  5.9810363113839908e-02   7   7   3   2
  1.2729371368864159e-01   7   3   7   2
  3.0314831685621137e-02   7   3   3   2
  1.5384863582383757e-01   3   3   7   2
  1.7679372015584907e-01   7   3   2   2
  1.9184432108351812e-01   7   2   3   2
  1.8066270256714625e-03   7   3   2   1
  5.8284638468087284e-02   7   2   3   1
  7.6685408551681614e-02   7   1   3   2
  1.6389888260302496e-01   7   7   7   4
  2.5813232843547914e-02   7   7   4   4
  5.8392156831907488e-02   7   4   7   4
  4.2355482444825504e-01   7   4   4   4
  4.6152878539693895e-02   7   7   4   1
  1.0039487709788429e-01   7   4   7   1
  3.1958081078517042e-04   7   4   4   1
  2.5077606781466837e-03   4   4   7   1
  5.7317315450825350e-02   7   4   1   1
  1.9739808408312368e-02   7   1   4   1
  7.6951041394086594e-02   7   7   4   2
  7.1069738356905179e-02   7   4   7   2
  1.4399418716012330e-01   7   4   4   2
  1.3089012945943786e-02   4   4   7   2
  1.0277183727351064e-01   7   4   2   2
  8.4795666627145425e-02   7   2   4   2
  6.8980125937240067e-02   7   4   2   1
  2.5394310627598837e-02   7   2   4   1
  4.0151955920269766e-02   7   1   4   2
  5.2895310330424564e-02   7   7   4   3
  1.8685011726850023e-01   7   4   7   3
  9.4505048292580371e-02   7   4   4   3
  1.2218323889465268e-01   4   4   7   3
  9.7680377159523296e-02   7   4   3   3
  1.0290391340743386e-01   7   3   4   3
  2.4501924896215149e-02   7   4   3   1
  3.3300524070857374e-02   7   3   4   1
  5.0236237628537045e-02   7   1   4   3
  5.9605793352906458e-02   7   4   3   2
  3.1015599786534471e-02   7   3   4   2
  9.6299752108005982e-02   7   2   4   3
  1.1620017734573695e-01   7   7   7   5
  1.4938084127906220e-01   7   7   5   5
  6.4506591833218538e-02   7   5   7   5
  1.5911607053958443e-01   7   5   5   5
  1.9049440678486690e-01   7   7   5   1
  1.0694420913616065e-01   7   5   7   1
  1.7436103052657245e-01   7   5   5   1
  1.8692052997981412e-01   5   5   7   1
  1.3342281661562855e-01   7   5   1   1
  5.7937881122190976e-02   7   1   5   1
  1.3104892327364002e-02   7   7   5   2
  4.6377723236454053e-02   7   5   7   2
  1.4094474407483079e-01   7   5   5   2
  3.9021480230142618e-02   5   5   7   2
  8.4443677759710956e-02   7   5   2   2
  1.8721101281785382e-01   7   2   5   2
  1.4221720443409275e-02   7   5   2   1
  6.4318100471258896e-02   7   2   5   1
  4.7273213947199536e-02   7   1   5   2
  8.7386582114444944e-02   7   7   5   3
  4.8863928040135257e-02   7   5   7   3
  1.0118388304604747e-01   7   5   5   3
  1.8138881861620909e-01   5   5   7   3
  1.5300794697048656e-02   7   5   3   3
  1.4278078410650549e-01   7   3   5   3
  6.1720491675449018e-02   7   5   3   1
  1.8908419456132218e-02   7   3   5   1
  3.9698180621568213e-02   7   1   5   3
  2.7766405722602999e-02   7   5   3   2
  8.5809930143860583e-02   7   3   5   2
  9.0893657471213404e-02   7   2   5   3
  1.2345581699240951e-01   7   7   5   4
  3.6163740542571057e-02   7   5   7   4
  1.0300474393311765e-01   7   5   5   4
  1.6492634128276185e-01   5   5   7   4
  7.1864887533320640e-02   7   5   4   4
  1.6322340415862796e-01   7   4   5   4
  2.9338824376092844e-02   7   5   4   1
  1.7211781096811603e-02   7   4   5   1
  4.9278958726353399e-02   7   1   5   4
  1.9532476933030639e-02   7   5   4   2
  8.6430749231905635e-02   7   4   5   2
  2.0419716683441953e-02   7   2   5   4
  6.1627227611362315e-02   7   5   4   3
  8.7805055080718147e-02   7   4   5   3
  3.9246908666573745e-02   7   3   5   4
  4.7328862758035273e-01   7   7   7   6
  3.3339653710734940e-02   7   7   6   6
  1.9437548011863229e-01   7   6   7   6
  2.8198244730276473e-01   7   6   6   6
  1.1967378237973299e-01   7   7   6   1
  2.6244370077864128e-02   7   6   7   1
  1.1335547908291893e-01   7   6   6   1
  1.1087605417627154e-01   6   6   7   1
  6.2097992110133872e-02   7   6   1   1
  2.4129786188765372e-02   7   1   6   1
  1.4755816402222677e-01   7   7   6   2
  4.8544730504002730e-02   7   6   7   2
  1.6457182945209115e-01   7   6   6   2
  3.7095194247855241e-02   6   6   7   2
  6.2535387704993256e-02   7   6   2   2
  1.7634508293718168e-01   7   2   6   2
  6.7421294609063306e-02   7   6   2   1
  7.3929755673071404e-02   7   2   6   1
  6.2543240383407294e-03   7   1   6   2
  2.6312312323655926e-02   7   7   6   3
  1.7990581732330216e-02   7   6   7   3
  1.6628890609915979e-03   7   6   6   3
  9.1302082370521190e-02   6   6   7   3
  1.2686066415016151e-01   7   6   3   3
  1.0595259845539583e-01   7   3   6   3
  4.9786942847576877e-02   7   6   3   1
  3.3579789850777135e-02   7   3   6   1
  2.5282334928762237e-02   7   1   6   3
  2.3367544138915012e-02   7   6   3   2
  1.7316303178115566e-02   7   3   6   2
  5.9598103030373432e-02   7   2   6   3
  1.4537862876561719e-01   7   7   6   4
  1.7551461856262862e-01   7   6   7   4
  1.4143194533514844e-01   7   6   6   4
  4.6953120668861432e-02   6   6   7   4
  9.5599149271202638e-02   7   6   4   4
  3.6423525952091040e-03   7   4   6   4
  7.4733119867345932e-02   7   6   4   1
  6.5472358145094625e-02   7   4   6   1
  7.8066942349644536e-03   7   1   6   4
  4.7276910082835029e-02   7   6   4   2
  9.9647506705142580e-02   7   4   6   2
  5.3209752212846101e-02   7   2   6   4
  8.9943600631846671e-02   7   6   4   3
  7.7290092728339352e-02   7   4   6   3
  2.0375969594900428e-02   7   3   6   4
  1.8142172445468929e-01   7   7   6   5
  7.4962512269046586e-02   7   6   7   5
  1.6961777759279628e-01   7   6   6   5
  6.5339849185182416e-02   6   6   7   5
  6.5347332033224431e-02   7   6   5   5
  1.3184212396204137e-01   7   5   6   5
  5.8676498234140596e-02   7   6   5   1
  4.8983202321108569e-03   7   5   6   1
  7.6996566551394280e-02   7   1   6   5
  4.9175217103043546e-02   7   6   5   2
  4.8818401507136525e-02   7   5   6   2
  4.2912657074135878e-02   7   2   6   5
  3.9472771538954364e-02   7   6   5   3
  7.7645380145270129e-02   7   5   6   3
  9.7475438648800455e-02   7   3   6   5
  7.4850515939083984e-02   7   6   5   4
  6.3450200382991442e-02   7   5   6   4
  7.2180258738782227e-03   7   4   6   5
  6.3336329689215187e-01   8   8   8   8
  2.6446031628102107e-01   8   8   8   1
  5.9233530241474798e-02   8   8   1   1
  6.5065573822688294e-02   8   1   8   1
  3.1555996212769116e-01   8   1   1   1
  4.9725271128751869e-01   8   8   8   2
  1.0320956536604181e-01   8   8   2   2
  1.4489078274089756e-01   8   2   8   2
  1.2278737415540486e-01   8   2   2   2
  6.6467823133275358e-02   8   8   2   1
  1.4972182309866575e-01   8   2   8   1
  1.3659329709248366e-01   8   2   2   1
  1.3625427410498397e-01   2   2   8   1
  1.5768474462021079e-02   8   2   1   1
  9.1787257500868399e-02   8   1   2   1
  3.4907342964125015e-01   8   8   8   3
  1.3576966295522791e-02   8   8   3   3
  1.3828010590117030e-02   8   3   8   3
  2.6352140891291859e-01   8   3   3   3
  5.2409759735735389e-02   8   8   3   1
  9.6675032490868368e-02   8   3   8   1
  2.6161092870270033e-02   8   3   3   1
  1.8888153715870548e-02   3   3   8   1
  2.4076336383604055e-02   8   3   1   1
  1.9396744116759171e-01   8   1   3   1
  1.5125632909795375e-01   8   8   3   2
  5.3635275719580669e-02   8   3   8   2
  1.4498119670700721e-01   8   3   3   2
  8.3152502134475254e-02   3   3   8   2
  9.4943680366320643e-02   8   3   2   2
  1.1088285282676323e-02   8   2   3   2
  6.1374414308737225e-02   8   3   2   1
  4.9061918484399579e-02   8   2   3   1
  9.0447486705798497e-02   8   1   3   2
  4.6760713509921803e-01   8   8   8   4
  1.8365532393679210e-01   8   8   4   4
  6.0765054247706785e-02   8   4   8   4
  3.9505088839731090e-01   8   4   4   4
  4.5245481577909669e-02   8   8   4   1
  8.9790372493701046e-02   8   4   8   1
  1.0202178259730954e-01   8   4   4   1
  4.6126385080009484e-02   4   4   8   1
  1.4237615599307094e-01   8   4   1   1
  1.9689052195226642e-01   8   1   4   1
  1.3104264963958373e-01   8   8   4   2
  5.4533396568202934e-02   8   4   8   2
  9.3803112649472858e-02   8   4   4   2
  6.0024105125800929e-04   4   4   8   2
  8.9284786603456193e-02   8   4   2   2
  1.9418883005949483e-01   8   2   4   2
  3.0466350012516415e-02   8   4   2   1
  2.1510904463584054e-02   8   2   4   1
  2.4758507205903463e-02   8   1   4   2
  1.6129020531828342e-01   8   8   4   3
  9.7274219718569643e-02   8   4   8   3
  8.1500383127562623e-02   8   4   4   3
  4.3125858831847365e-02   4   4   8   3
  1.0805041739496968e-01   8   4   3   3
  1.4460484750294708e-01   8   3   4   3
  2.8369391607292679e-02   8   4   3   1
  5.4286209731170570e-02   8   3   4   1
  7.5592468486596523e-02   8   1   4   3
  3.3197728643260191e-02   8   4   3   2
  8.0176297340482108e-02   8   3   4   2
  8.5707243188960988e-02   8   2   4   3
  7.4458501494373223e-03   8   8   8   5
  1.7698853305488182e-01   8   8   5   5
  1.1861738815379785e-01   8   5   8   5
  4.3108614521463570e-02   8   5   5   5
  1.8497518848517025e-01   8   8   5   1
  1.8274391441062854e-01   8   5   8   1
  1.9615135502752817e-01   8   5   5   1
  1.8000442187421625e-01   5   5   8   1
  1.8994291679209296e-01   8   5   1   1
  1.8690439093148420e-01   8   1   5   1
  1.6648541986484433e-03   8   8   5   2
  1.5555880622173598e-01   8   5   8   2
  5.1917755485127734e-03   8   5   5   2
  1.1757540992502752e-01   5   5   8   2
  1.2995615413921335e-01   8   5   2   2
  6.5647290983993120e-02   8   2   5   2
  1.1107936201603066e-02   8   5   2   1
  1.2427265769972093e-02   8   2   5   1
  9.7391505899143818e-02   8   1   5   2
  1.0664589411852535e-01   8   8   5   3
  1.3246005636928346e-01   8   5   8   3
  1.4165152650188123e-01   8   5   5   3
  1.3747715966320503e-02   5   5   8   3
  4.1191115680244271e-02   8   5   3   3
  8.6685935334123609e-02   8   3   5   3
  1.1192586468981847e-03   8   5   3   1
  6.9262525726323208e-03   8   3   5   1
  3.4306180995340482e-02   8   1   5   3
  3.1223008050896714e-02   8   5   3   2
  9.9274261495616509e-02   8   3   5   2
  2.6906433620973010e-02   8   2   5   3
  1.7141324825910578e-01   8   8   5   4
  7.1122183011135973e-02   8   5   8   4
  1.4935365595473324e-01   8   5   5   4
  1.6897125393707374e-01   5   5   8   4
  4.3427724667816865e-02   8   5   4   4
  1.9299043582964465e-01   8   4   5   4
  7.1219265309149946e-02   8   5   4   1
  9.8266786794162286e-02   8   4   5   1
  7.5989900495501139e-02   8   1   5   4
  1.9326037486254041e-02   8   5   4   2
  3.5258951120634700e-02   8   4   5   2
  1.9630034168275228e-02   8   2   5   4
  8.3206792723445583e-02   8   5   4   3
  9.5259476709033009e-02   8   4   5   3
  7.6737005175526174e-02   8   3   5   4
  4.3098440464886351e-01   8   8   8   6
  9.1132747480166032e-02   8   8   6   6
  6.6536767876874264e-02   8   6   8   6
  4.1912998170645210e-01   8   6   6   6
  1.1086175793075809e-01   8   8   6   1
  2.4173114558952685e-02   8   6   8   1
  4.2436745938076857e-02   8   6   6   1
  9.8247851088079458e-02   6   6   8   1
  8.1930959540045839e-02   8   6   1   1
  1.5190229792766524e-01   8   1   6   1
  7.1412845187482463e-02   8   8   6   2
  1.5435721116103365e-01   8   6   8   2
  1.9630808104476305e-01   8   6   6   2
  1.6923234442697216e-01   6   6   8   2
  1.6692432510172112e-01   8   6   2   2
  7.3438896309836049e-02   8   2   6   2
  5.0625944167921374e-03   8   6   2   1
  9.7556160014614923e-02   8   2   6   1
  8.4258929348663747e-02   8   1   6   2
  1.7389207768223514e-01   8   8   6   3
  1.5099686508599256e-02   8   6   8   3
  6.4752136702303752e-03   8   6   6   3
  1.2278636123612768e-01   6   6   8   3
  1.4713605713787081e-01   8   6   3   3
  1.2310556085547419e-01   8   3   6   3
  6.6263007945057281e-02   8   6   3   1
  9.5126442640604117e-02   8   3   6   1
  2.6588751469842489e-02   8   1   6   3
  9.1938572650657358e-02   8   6   3   2
  1.1839654767950656e-02   8   3   6   2
  3.1306570592392294e-02   8   2   6   3
  1.7442307996972448e-01   8   8   6   4
  4.6728739252278037e-02   8   6   8   4
  1.6161169892811869e-01   8   6   6   4
  1.1130635335085484e-01   6   6   8   4
  1.8871846211531274e-01   8   6   4   4
  1.0074069256447477e-01   8   4   6   4
  6.6641682513111866e-02   8   6   4   1
  1.5296573262186201e-02   8   4   6   1
  9.7322877480901265e-02   8   1   6   4
  6.3376690736606484e-02   8   6   4   2
  1.7864978296455707e-02   8   4   6   2
  7.4142804182379925e-03   8   2   6   4
  4.9497478032059061e-02   8   6   4   3
  7.8597990736130663e-02   8   4   6   3
  4.6467973894620568e-02   8   3   6   4
  1.7660633220296273e-01   8   8   6   5
  1.2947377989856129e-01   8   6   8   5
  1.8064819389939268e-01   8   6   6   5
  1.1947229415417697e-03   6   6   8   5
  1.3871236167638920e-01   8   6   5   5
  1.1701792890100721e-01   8   5   6   5
  1.0536129242182219e-02   8   6   5   1
  9.9031989667341280e-02   8   5   6   1
  2.2999202528719415e-02   8   1   6   5
  3.3290783370089845e-02   8   6   5   2
  6.8938285128010077e-02   8   5   6   2
  9.6142074592379972e-02   8   2   6   5
  2.2659909325500500e-02   8   6   5   3
  9.2424140585792583e-02   8   5   6   3
  8.7624619113450264e-02   8   3   6   5
  4.3174452913505502e-02   8   6   5   4
  4.7088740858944884e-02   8   5   6   4
  5.6210247997996010e-02   8   4   6   5
  4.1880770608366946e-01   8   8   8   7
  2.9661775826850256e-02   8   8   7   7
  1.2785563655918242e-01   8   7   8   7
  4.9779684355015202e-01   8   7   7   7
  1.2787882068226836e-01   8   8   7   1
  8.7903664947892812e-02   8   7   8   1
  5.6776699994496920e-03   8   7   7   1
  1.6630180309990562e-02   7   7   8   1
  1.0607343704060300e-01   8   7   1   1
  1.5640030272929298e-01   8   1   7   1
  1.4732904504472161e-01   8   8   7   2
  3.8032193487123861e-02   8   7   8   2
  5.2365452709435135e-02   8   7   7   2
  9.0448953662004894e-02   7   7   8   2
  9.2005376959926319e-02   8   7   2   2
  1.3472742862951526e-01   8   2   7   2
  1.7695307230926254e-02   8   7   2   1
  1.8783083538236291e-02   8   2   7   1
  9.6486812470241955e-03   8   1   7   2
  6.4774921436361640e-02   8   8   7   3
  3.4065298995029157e-02   8   7   8   3
  4.9468145672981103e-03   8   7   7   3
  1.6612859692874679e-01   7   7   8   3
  4.8965676854494544e-02   8   7   3   3
  2.8407001486765095e-02   8   3   7   3
  1.5544196774228801e-02   8   7   3   1
  3.0301072471516945e-02   8   3   7   1
  3.3572317566844256e-03   8   1   7   3
  4.0928938190113728e-02   8   7   3   2
  7.8312364537561463e-02   8   3   7   2
  4.4337191176366766e-02   8   2   7   3
  3.4976422101110254e-03   8   8   7   4
  5.7156873097621068e-02   8   7   8   4
  1.9027934022254067e-01   8   7   7   4
  3.4263004838854215e-02   7   7   8   4
  1.8829966219984662e-02   8   7   4   4
  5.4782349611672221e-02   8   4   7   4
  2.0136393596759561e-02   8   7   4   1
  7.5311635524155068e-02   8   4   7   1
  8.0087942088456834e-02   8   1   7   4
  5.8608418716722802e-02   8   7   4   2
  4.9699451966368005e-02   8   4   7   2
  5.9097324490230911e-02   8   2   7   4
  5.6879152289672823e-02   8   7   4   3
  1.8509800607011649e-02   8   4   7   3
  9.0165664014894162e-02   8   3   7   4
  4.8924293243210702e-03   8   8   7   5
  5.2875294857227806e-02   8   7   8   5
  1.5650305272928922e-01   8   7   7   5
  1.1994042381500031e-01   7   7   8   5
  1.1124308731320531e-01   8   7   5   5
  1.9306549286856926e-02   8   5   7   5
  9.2678704009859142e-02   8   7   5   1
  3.9839131711446291e-02   8   5   7   1
  3.9902940420634015e-03   8   1   7   5
  5.8511677776992115e-02   8   7   5   2
  4.1321493580106103e-02   8   5   7   2
  1.2953341445998655e-02   8   2   7   5
  6.0893897507558692e-02   8   7   5   3
  5.5406415963613273e-03   8   5   7   3
  8.4829575792650769e-02   8   3   7   5
  4.5206391858681833e-02   8   7   5   4
  4.8501437846913784e-02   8   5   7   4
  6.7446854282731993e-03   8   4   7   5
  4.4201176755574188e-02   8   8   7   6
  1.2887294527560333e-01   8   7   8   6
  1.9516636501962836e-01   8   7   7   6
  1.8986846870384569e-01   7   7   8   6
  1.4729449819799020e-01   8   7   6   6
  8.4170722456021002e-02   8   6   7   6
  6.8573383455841616e-02   8   7   6   1
  6.8621608359800954e-02   8   6   7   1
  2.3126626565009308e-02   8   1   7   6
  9.9477475306062657e-02   8   7   6   2
  4.3559307221756244e-02   8   6   7   2
  7.4379263345505195e-02   8   2   7   6
  3.3805053832454517e-02   8   7   6   3
  3.6291576864565751e-02   8   6   7   3
  9.8988325182469181e-02   8   3   7   6
  7.2507827801721464e-02   8   7   6   4
  8.3750665175969657e-02   8   6   7   4
  3.9803542472724766e-02   8   4   7   6
  8.5169574196309036e-02   8   7   6   5
  1.7160291510408147e-02   8   6   7   5
  9.4739425722706633e-02   8   5   7   6
  3.5089664593454906e-01   9   9   9   9
  1.9243931673005127e-01   9   9   9   1
  7.9946005503508680e-02   9   9   1   1
  1.4367328543243815e-01   9   1   9   1
  4.1795876481895489e-01   9   1   1   1
  4.7543712194101784e-01   9   9   9   2
  1.2796291853567093e-02   9   9   2   2
  1.3290513484468877e-01   9   2   9   2
  8.8155767899758694e-02   9   2   2   2
  7.4191613663963915e-02   9   9   2   1
  3.3679981370163606e-02   9   2   9   1
  2.2640538311194530e-02   9   2   2   1
  3.0514688553810183e-02   2   2   9   1
  7.9103357052833861e-02   9   2   1   1
  7.9295025613989767e-02   9   1   2   1
  1.3982248849166150e-02   9   9   9   3
  9.0006453537402706e-02   9   9   3   3
  1.9708756866604331e-02   9   3   9   3
  4.5800890563805569e-01   9   3   3   3
  9.3263403505968817e-02   9   9   3   1
  1.4982575903579404e-01   9   3   9   1
  1.4586585576242661e-01   9   3   3   1
  1.4726138930663477e-01   3   3   9   1
  1.3130965770215680e-01   9   3   1   1
  4.3160653073989384e-02   9   1   3   1
  1.0298529268749503e-02   9   9   3   2
  1.1739708200988439e-02   9   3   9   2
  8.4281364795812691e-02   9   3   3   2
  1.6208208311794017e-01   3   3   9   2
  6.3363825452185066e-02   9   3   2   2
  1.7681833004891259e-01   9   2   3   2
  4.0910812226314992e-02   9   3   2   1
  2.0156698907381580e-02   9   2   3   1
  2.5499661649159766e-03   9   1   3   2
  3.3220221237166850e-02   9   9   9   4
  1.3527935919603798e-01   9   9   4   4
  1.6215096849383749e-02   9   4   9   4
  1.6470576723176364e-01   9   4   4   4
  7.3915955240569986e-02   9   9   4   1
  1.5937149516200216e-01   9   4   9   1
  3.5297043559272219e-02   9   4   4   1
  1.8542089468372474e-02   4   4   9   1
  1.1922906194743055e-02   9   4   1   1
  5.7381326803851655e-02   9   1   4   1
  1.4319718000425111e-01   9   9   4   2
  9.8708369235507312e-02   9   4   9   2
  1.8102490528053219e-01   9   4   4   2
  8.0910612037381702e-02   4   4   9   2
  1.3475260571010847e-02   9   4   2   2
  7.5004929928785324e-02   9   2   4   2
  8.4857856795770126e-02   9   4   2   1
  3.6470809363852184e-02   9   2   4   1
  1.4261117992415188e-02   9   1   4   2
  8.4339911029684439e-02   9   9   4   3
  1.7379251155900383e-01   9   4   9   3
  1.9940827993488103e-01   9   4   4   3
  1.0673849773857298e-01   4   4   9   3
  7.8913270985795453e-02   9   4   3   3
  6.6453269186236383e-02   9   3   4   3
  4.3031781021428536e-03   9   4   3   1
  8.5651533100962338e-02   9   3   4   1
  1.8069310600523688e-02   9   1   4   3
  3.3331615982469899e-02   9   4   3   2