
 Primary working directories    : .
 Secondary working directories  : .
 Wavefunction directory         : /homec/naokin/mpsxx/qcdmrg/benchmark/molpro/./
 Main file repository           : /homec/naokin/mpsxx/qcdmrg/benchmark/molpro/./

 SHA1      : 8344efe475b03c132f2fec100f1f46232803064f
 ARCHNAME  : Linux/x86_64
 FC        : /home100/opt/intel/composer_xe_2013.3.163/bin/intel64/ifort
 FCVERSION : 13.1.1
 BLASLIB   : -L/home100/opt/intel/composer_xe_2013.3.163/mkl/lib/intel64 -lmkl_intel_ilp64 -lmkl_sequential -lmkl_core
 id        : cathokudai

 Nodes     nprocs
 mirai140     1

 Using customized tuning parameters: mindgm=1; mindgv=20; mindgc=4; mindgr=1; noblas=0; minvec=7
 default implementation of scratch files=df  

 
 memory,2000,m
 
 geometry={angstrom;
 C                0.083256    6.785902    0.000000
 C                0.650337    5.566541    0.000000
 C               -0.083256    4.320089    0.000000
 C                0.496618    3.092175    0.000000
 C               -0.225094    1.850047    0.000000
 C                0.359627    0.620589    0.000000
 C               -0.359627   -0.620589    0.000000
 C                0.225094   -1.850047    0.000000
 C               -0.496618   -3.092175    0.000000
 C                0.083256   -4.320089    0.000000
 C               -0.650337   -5.566541    0.000000
 C               -0.083256   -6.785902    0.000000
 H                0.679422    7.693049    0.000000
 H               -0.997235    6.910732    0.000000
 H                1.738132    5.487815    0.000000
 H               -1.171893    4.389498    0.000000
 H                1.585952    3.028928    0.000000
 H               -1.314300    1.911099    0.000000
 H                1.448990    0.560515    0.000000
 H               -1.448990   -0.560515    0.000000
 H                1.314300   -1.911099    0.000000
 H               -1.585952   -3.028928    0.000000
 H                1.171893   -4.389498    0.000000
 H               -1.738132   -5.487815    0.000000
 H               -0.679422   -7.693049    0.000000
 H                0.997235   -6.910732    0.000000
 }
 
 gprint,basis
 gprint,orbital=100
 
 basis=sto-3g
 
 hf
 
 {fci
 occ,19,6,18,6
 core,19,0,18,0
 }

 Variables initialized (774), CPU time= 0.01 sec
 Commands  initialized (547), CPU time= 0.00 sec, 516 directives.
 Default parameters read. Elapsed time= 0.14 sec

 Checking input...
 Passed
1


                                         ***  PROGRAM SYSTEM MOLPRO  ***
                         Copyright, University College Cardiff Consultants Limited, 2008

                                    Version 2012.1 linked 12 Jul 2013 09:59:03


 **********************************************************************************************************************************
 LABEL *                                                                                 
 Linux-2.6.32-279.14.1.el6.x86_64/mirai140(x86_64) 64 bit serial version                 DATE: 05-Oct-14          TIME: 19:24:56  
 **********************************************************************************************************************************

 SHA1:             8344efe475b03c132f2fec100f1f46232803064f
 **********************************************************************************************************************************

Geometry recognized as XYZ




 Variable memory set to 2000000000 words,  buffer space   230000 words

 SETTING BASIS          =    STO-3G


 Recomputing integrals since basis changed


 Using spherical harmonics

 Library entry C      S STO-3G               selected for orbital group  1
 Library entry C      P STO-3G               selected for orbital group  1
 Library entry H      S STO-3G               selected for orbital group  2

1PROGRAM * SEWARD (Integral evaluation for generally contracted gaussian basis sets)     Author: Roland Lindh, 1990

 Geometry written to block  1 of record 700


 Point group  C2h 



 ATOMIC COORDINATES

 NR  ATOM    CHARGE       X              Y              Z

   1  C       6.00    0.157331039   12.823496335    0.000000000
   2  C       6.00   -0.157331039  -12.823496335    0.000000000
   3  C       6.00    1.228958823   10.519237989    0.000000000
   4  C       6.00   -1.228958823  -10.519237989    0.000000000
   5  C       6.00   -0.157331039    8.163785073    0.000000000
   6  C       6.00    0.157331039   -8.163785073    0.000000000
   7  C       6.00    0.938472012    5.843363900    0.000000000
   8  C       6.00   -0.938472012   -5.843363900    0.000000000
   9  C       6.00   -0.425366014    3.496082160    0.000000000
  10  C       6.00    0.425366014   -3.496082160    0.000000000
  11  C       6.00    0.679596539    1.172743250    0.000000000
  12  C       6.00   -0.679596539   -1.172743250    0.000000000
  13  H       1.00    1.283921508   14.537755726    0.000000000
  14  H       1.00   -1.283921508  -14.537755726    0.000000000
  15  H       1.00   -1.884501039   13.059390848    0.000000000
  16  H       1.00    1.884501039  -13.059390848    0.000000000
  17  H       1.00    3.284593460   10.370467410    0.000000000
  18  H       1.00   -3.284593460  -10.370467410    0.000000000
  19  H       1.00   -2.214556825    8.294949074    0.000000000
  20  H       1.00    2.214556825   -8.294949074    0.000000000
  21  H       1.00    2.997014938    5.723844392    0.000000000
  22  H       1.00   -2.997014938   -5.723844392    0.000000000
  23  H       1.00   -2.483667055    3.611453720    0.000000000
  24  H       1.00    2.483667055   -3.611453720    0.000000000
  25  H       1.00    2.738194267    1.059219843    0.000000000
  26  H       1.00   -2.738194267   -1.059219843    0.000000000

 Bond lengths in Bohr (Angstrom)

  1- 3  2.541258080   1-13  2.051314540   1-15  2.055413451   2- 4  2.541258080   2-14  2.051314540
       ( 1.344775858)       ( 1.085508903)       ( 1.087677953)       ( 1.344775858)       ( 1.085508903)

  2-16  2.055413451   3- 5  2.733122394   3-17  2.061011025   4- 6  2.733122394   4-18  2.061011025
       ( 1.087677953)       ( 1.446306080)       ( 1.090640062)       ( 1.446306080)       ( 1.090640062)

  5- 7  2.566152518   5-19  2.061402904   6- 8  2.566152518   6-20  2.061402904   7- 9  2.714734928
       ( 1.357949427)       ( 1.090847435)       ( 1.357949427)       ( 1.090847435)       ( 1.436575852)

  7-21  2.062009673   8-10  2.714734928   8-22  2.062009673   9-11  2.572711786   9-23  2.061531899
       ( 1.091168523)       ( 1.436575852)       ( 1.091168523)       ( 1.361420443)       ( 1.090915697)

 10-12  2.572711786  10-24  2.061531899  11-12  2.710850927  11-25  2.061725532  12-26  2.061725532
       ( 1.361420443)       ( 1.090915697)       ( 1.434520528)       ( 1.091018163)       ( 1.091018163)

 Bond angles

  1- 3- 5  124.57983054   1- 3-17  119.08084480   2- 4- 6  124.57983054   2- 4-18  119.08084480

  3- 1-13  121.74612191   3- 1-15  121.53165707   3- 5- 7  124.24257322   3- 5-19  116.83061348

  4- 2-14  121.74612191   4- 2-16  121.53165707   4- 6- 8  124.24257322   4- 6-20  116.83061348

  5- 3-17  116.33932467   5- 7- 9  124.56347983   5- 7-21  118.60158022   6- 4-18  116.33932467

  6- 8-10  124.56347983   6- 8-22  118.60158022   7- 5-19  118.92681330   7- 9-11  124.40677352

  7- 9-23  116.94963973   8- 6-20  118.92681330   8-10-12  124.40677352   8-10-24  116.94963973

  9- 7-21  116.83493995   9-11-12  124.47259715   9-11-25  118.59184528  10- 8-22  116.83493995

 10-12-11  124.47259715  10-12-26  118.59184528  11- 9-23  118.64358674  11-12-26  116.93555757

 12-10-24  118.64358674  12-11-25  116.93555757  13- 1-15  116.72222102  14- 2-16  116.72222102


 BASIS DATA

   Nr Sym  Nuc  Type         Exponents   Contraction coefficients

   1.1 Ag    1  1s           71.616837     0.154329
             2  1s           13.045096     0.535328
                              3.530512     0.444635
   2.1 Ag    1  1s            2.941249    -0.099967
             2  1s            0.683483     0.399513
                              0.222290     0.700115
   3.1 Ag    1  2px           2.941249     0.155916
             2 -2px           0.683483     0.607684
                              0.222290     0.391957
   4.1 Ag    1  2py           2.941249     0.155916
             2 -2py           0.683483     0.607684
                              0.222290     0.391957
   5.1 Ag    3  1s           71.616837     0.154329
             4  1s           13.045096     0.535328
                              3.530512     0.444635
   6.1 Ag    3  1s            2.941249    -0.099967
             4  1s            0.683483     0.399513
                              0.222290     0.700115
   7.1 Ag    3  2px           2.941249     0.155916
             4 -2px           0.683483     0.607684
                              0.222290     0.391957
   8.1 Ag    3  2py           2.941249     0.155916
             4 -2py           0.683483     0.607684
                              0.222290     0.391957
   9.1 Ag    5  1s           71.616837     0.154329
             6  1s           13.045096     0.535328
                              3.530512     0.444635
  10.1 Ag    5  1s            2.941249    -0.099967
             6  1s            0.683483     0.399513
                              0.222290     0.700115
  11.1 Ag    5  2px           2.941249     0.155916
             6 -2px           0.683483     0.607684
                              0.222290     0.391957
  12.1 Ag    5  2py           2.941249     0.155916
             6 -2py           0.683483     0.607684
                              0.222290     0.391957
  13.1 Ag    7  1s           71.616837     0.154329
             8  1s           13.045096     0.535328
                              3.530512     0.444635
  14.1 Ag    7  1s            2.941249    -0.099967
             8  1s            0.683483     0.399513
                              0.222290     0.700115
  15.1 Ag    7  2px           2.941249     0.155916
             8 -2px           0.683483     0.607684
                              0.222290     0.391957
  16.1 Ag    7  2py           2.941249     0.155916
             8 -2py           0.683483     0.607684
                              0.222290     0.391957
  17.1 Ag    9  1s           71.616837     0.154329
            10  1s           13.045096     0.535328
                              3.530512     0.444635
  18.1 Ag    9  1s            2.941249    -0.099967
            10  1s            0.683483     0.399513
                              0.222290     0.700115
  19.1 Ag    9  2px           2.941249     0.155916
            10 -2px           0.683483     0.607684
                              0.222290     0.391957
  20.1 Ag    9  2py           2.941249     0.155916
            10 -2py           0.683483     0.607684
                              0.222290     0.391957
  21.1 Ag   11  1s           71.616837     0.154329
            12  1s           13.045096     0.535328
                              3.530512     0.444635
  22.1 Ag   11  1s            2.941249    -0.099967
            12  1s            0.683483     0.399513
                              0.222290     0.700115
  23.1 Ag   11  2px           2.941249     0.155916
            12 -2px           0.683483     0.607684
                              0.222290     0.391957
  24.1 Ag   11  2py           2.941249     0.155916
            12 -2py           0.683483     0.607684
                              0.222290     0.391957
  25.1 Ag   13  1s            3.425251     0.154329
            14  1s            0.623914     0.535328
                              0.168855     0.444635
  26.1 Ag   15  1s            3.425251     0.154329
            16  1s            0.623914     0.535328
                              0.168855     0.444635
  27.1 Ag   17  1s            3.425251     0.154329
            18  1s            0.623914     0.535328
                              0.168855     0.444635
  28.1 Ag   19  1s            3.425251     0.154329
            20  1s            0.623914     0.535328
                              0.168855     0.444635
  29.1 Ag   21  1s            3.425251     0.154329
            22  1s            0.623914     0.535328
                              0.168855     0.444635
  30.1 Ag   23  1s            3.425251     0.154329
            24  1s            0.623914     0.535328
                              0.168855     0.444635
  31.1 Ag   25  1s            3.425251     0.154329
            26  1s            0.623914     0.535328
                              0.168855     0.444635
   1.2 Au    1  2pz           2.941249     0.155916
             2  2pz           0.683483     0.607684
                              0.222290     0.391957
   2.2 Au    3  2pz           2.941249     0.155916
             4  2pz           0.683483     0.607684
                              0.222290     0.391957
   3.2 Au    5  2pz           2.941249     0.155916
             6  2pz           0.683483     0.607684
                              0.222290     0.391957
   4.2 Au    7  2pz           2.941249     0.155916
             8  2pz           0.683483     0.607684
                              0.222290     0.391957
   5.2 Au    9  2pz           2.941249     0.155916
            10  2pz           0.683483     0.607684
                              0.222290     0.391957
   6.2 Au   11  2pz           2.941249     0.155916
            12  2pz           0.683483     0.607684
                              0.222290     0.391957
   1.3 Bu    1  1s           71.616837     0.154329
             2 -1s           13.045096     0.535328
                              3.530512     0.444635
   2.3 Bu    1  1s            2.941249    -0.099967
             2 -1s            0.683483     0.399513
                              0.222290     0.700115
   3.3 Bu    1  2px           2.941249     0.155916
             2  2px           0.683483     0.607684
                              0.222290     0.391957
   4.3 Bu    1  2py           2.941249     0.155916
             2  2py           0.683483     0.607684
                              0.222290     0.391957
   5.3 Bu    3  1s           71.616837     0.154329
             4 -1s           13.045096     0.535328
                              3.530512     0.444635
   6.3 Bu    3  1s            2.941249    -0.099967
             4 -1s            0.683483     0.399513
                              0.222290     0.700115
   7.3 Bu    3  2px           2.941249     0.155916
             4  2px           0.683483     0.607684
                              0.222290     0.391957
   8.3 Bu    3  2py           2.941249     0.155916
             4  2py           0.683483     0.607684
                              0.222290     0.391957
   9.3 Bu    5  1s           71.616837     0.154329
             6 -1s           13.045096     0.535328
                              3.530512     0.444635
  10.3 Bu    5  1s            2.941249    -0.099967
             6 -1s            0.683483     0.399513
                              0.222290     0.700115
  11.3 Bu    5  2px           2.941249     0.155916
             6  2px           0.683483     0.607684
                              0.222290     0.391957
  12.3 Bu    5  2py           2.941249     0.155916
             6  2py           0.683483     0.607684
                              0.222290     0.391957
  13.3 Bu    7  1s           71.616837     0.154329
             8 -1s           13.045096     0.535328
                              3.530512     0.444635
  14.3 Bu    7  1s            2.941249    -0.099967
             8 -1s            0.683483     0.399513
                              0.222290     0.700115
  15.3 Bu    7  2px           2.941249     0.155916
             8  2px           0.683483     0.607684
                              0.222290     0.391957
  16.3 Bu    7  2py           2.941249     0.155916
             8  2py           0.683483     0.607684
                              0.222290     0.391957
  17.3 Bu    9  1s           71.616837     0.154329
            10 -1s           13.045096     0.535328
                              3.530512     0.444635
  18.3 Bu    9  1s            2.941249    -0.099967
            10 -1s            0.683483     0.399513
                              0.222290     0.700115
  19.3 Bu    9  2px           2.941249     0.155916
            10  2px           0.683483     0.607684
                              0.222290     0.391957
  20.3 Bu    9  2py           2.941249     0.155916
            10  2py           0.683483     0.607684
                              0.222290     0.391957
  21.3 Bu   11  1s           71.616837     0.154329
            12 -1s           13.045096     0.535328
                              3.530512     0.444635
  22.3 Bu   11  1s            2.941249    -0.099967
            12 -1s            0.683483     0.399513
                              0.222290     0.700115
  23.3 Bu   11  2px           2.941249     0.155916
            12  2px           0.683483     0.607684
                              0.222290     0.391957
  24.3 Bu   11  2py           2.941249     0.155916
            12  2py           0.683483     0.607684
                              0.222290     0.391957
  25.3 Bu   13  1s            3.425251     0.154329
            14 -1s            0.623914     0.535328
                              0.168855     0.444635
  26.3 Bu   15  1s            3.425251     0.154329
            16 -1s            0.623914     0.535328
                              0.168855     0.444635
  27.3 Bu   17  1s            3.425251     0.154329
            18 -1s            0.623914     0.535328
                              0.168855     0.444635
  28.3 Bu   19  1s            3.425251     0.154329
            20 -1s            0.623914     0.535328
                              0.168855     0.444635
  29.3 Bu   21  1s            3.425251     0.154329
            22 -1s            0.623914     0.535328
                              0.168855     0.444635
  30.3 Bu   23  1s            3.425251     0.154329
            24 -1s            0.623914     0.535328
                              0.168855     0.444635
  31.3 Bu   25  1s            3.425251     0.154329
            26 -1s            0.623914     0.535328
                              0.168855     0.444635
   1.4 Bg    1  2pz           2.941249     0.155916
             2 -2pz           0.683483     0.607684
                              0.222290     0.391957
   2.4 Bg    3  2pz           2.941249     0.155916
             4 -2pz           0.683483     0.607684
                              0.222290     0.391957
   3.4 Bg    5  2pz           2.941249     0.155916
             6 -2pz           0.683483     0.607684
                              0.222290     0.391957
   4.4 Bg    7  2pz           2.941249     0.155916
             8 -2pz           0.683483     0.607684
                              0.222290     0.391957
   5.4 Bg    9  2pz           2.941249     0.155916
            10 -2pz           0.683483     0.607684
                              0.222290     0.391957
   6.4 Bg   11  2pz           2.941249     0.155916
            12 -2pz           0.683483     0.607684
                              0.222290     0.391957

 NUCLEAR CHARGE:                   86
 NUMBER OF PRIMITIVE AOS:         222
 NUMBER OF SYMMETRY AOS:          222
 NUMBER OF CONTRACTIONS:           74   (  31Ag  +   6Au  +  31Bu  +   6Bg  )
 NUMBER OF CORE ORBITALS:          12   (   6Ag  +   0Au  +   6Bu  +   0Bg  )
 NUMBER OF VALENCE ORBITALS:       62   (  25Ag  +   6Au  +  25Bu  +   6Bg  )


 NUCLEAR REPULSION ENERGY  532.87112357


 Eigenvalues of metric

         1 0.188E+00 0.191E+00 0.200E+00 0.262E+00 0.287E+00 0.288E+00 0.295E+00 0.303E+00
         2 0.646E+00 0.741E+00 0.889E+00 0.114E+01 0.133E+01 0.146E+01
         3 0.188E+00 0.188E+00 0.195E+00 0.245E+00 0.282E+00 0.287E+00 0.291E+00 0.306E+00
         4 0.623E+00 0.686E+00 0.810E+00 0.103E+01 0.124E+01 0.141E+01


 Contracted 2-electron integrals neglected if value below      1.0D-11
 AO integral compression algorithm  1   Integral accuracy      1.0D-11

     4.981 MB (compressed) written to integral file ( 45.4%)


 NUMBER OF SORTED TWO-ELECTRON INTEGRALS:    1215125.     BUFFER LENGTH:  32768
 NUMBER OF SEGMENTS:   1  SEGMENT LENGTH:    1215125      RECORD LENGTH: 524288

 Memory used in sort:       1.77 MW

 SORT1 READ     1341496. AND WROTE     1043045. INTEGRALS IN      3 RECORDS. CPU TIME:     0.04 SEC, REAL TIME:     0.05 SEC
 SORT2 READ     1043045. AND WROTE     1215125. INTEGRALS IN     19 RECORDS. CPU TIME:     0.08 SEC, REAL TIME:     0.09 SEC

 FILE SIZES:   FILE 1:    13.1 MBYTE,  FILE 4:    12.6 MBYTE,   TOTAL:     25.7 MBYTE

 OPERATOR DM      FOR CENTER  0  COORDINATES:    0.000000    0.000000    0.000000


 **********************************************************************************************************************************
 DATASETS  * FILE   NREC   LENGTH (MB)   RECORD NAMES
              1      19       12.26       500      610      700      900      950      970     1000      129      960     1100   
                                          VAR    BASINP    GEOM    SYMINP    ZMAT    AOBASIS   BASIS     P2S    ABASIS      S 
                                         1400     1410     1200     1210     1080     1600     1650     1300     1700   
                                           T        V       H0       H01     AOSYM     SMH    MOLCAS    ERIS     OPER   

 PROGRAMS   *        TOTAL       INT
 CPU TIMES  *         1.08      0.96
 REAL TIME  *         6.92 SEC
 DISK USED  *        26.44 MB      
 **********************************************************************************************************************************

1PROGRAM * RHF-SCF (CLOSED SHELL)       Authors: W. Meyer, H.-J. Werner


 NUMBER OF ELECTRONS:      43+   43-
 CONVERGENCE THRESHOLDS:    1.00E-05 (Density)    1.72E-07 (Energy)
 MAX. NUMBER OF ITERATIONS:       60
 INTERPOLATION TYPE:            DIIS
 INTERPOLATION STEPS:              2 (START)      1 (STEP)
 LEVEL SHIFTS:                  0.00 (CLOSED)  0.00 (OPEN) 




   Atom=C  basis=cc-pVTZ           lmin=0  lmax=1
   Atom=H  basis=cc-pVTZ           lmin=0  lmax=1

 Orbital guess generated from atomic densities. Full valence occupancy:   31   6  31   6

 Molecular orbital dump at record        2100.2

 Initial alpha occupancy:  19   3  18   3
 Initial beta  occupancy:  19   3  18   3
 Wave function symmetry:    1

 ITERATION    DDIFF          GRAD             ENERGY        2-EL.EN.            DIPOLE MOMENTS         DIIS   ORB.
    1      0.000D+00      0.000D+00      -456.73209890   1379.466858    0.00000    0.00000    0.00000    0    start
    2      0.000D+00      0.728D-02      -456.78730809   1373.480678    0.00000    0.00000    0.00000    1    diag
    3      0.178D-01      0.329D-02      -456.79570132   1374.041375    0.00000    0.00000    0.00000    2    diag
    4      0.626D-02      0.932D-03      -456.79754276   1373.824825    0.00000    0.00000    0.00000    3    diag
    5      0.283D-02      0.349D-03      -456.79781181   1373.801603    0.00000    0.00000    0.00000    4    diag
    6      0.123D-02      0.926D-04      -456.79783156   1373.795445    0.00000    0.00000    0.00000    5    diag
    7      0.382D-03      0.257D-04      -456.79783224   1373.793593    0.00000    0.00000    0.00000    6    diag
    8      0.679D-04      0.978D-05      -456.79783232   1373.793484    0.00000    0.00000    0.00000    7    diag
    9      0.202D-04      0.382D-05      -456.79783234   1373.792864    0.00000    0.00000    0.00000    8    diag
   10      0.131D-04      0.637D-06      -456.79783234   1373.792763    0.00000    0.00000    0.00000    9    orth
   11      0.247D-05      0.154D-06      -456.79783234   1373.792763    0.00000    0.00000    0.00000    0    orth

 Final occupancy:  19   3  18   3

 !RHF STATE 1.1 Energy               -456.797832343803
 Nuclear energy                       532.87112357
 One-electron energy                -1676.56533754
 Two-electron energy                  686.89638163
 Virial quotient                       -1.00781989
 !RHF STATE 1.1 Dipole moment           0.00000000     0.00000000     0.00000000
 Dipole moment /Debye                   0.00000000     0.00000000     0.00000000

 ELECTRON ORBITALS
 =================


   Orb  Occ    Energy  Couls-En    Coefficients

                                   1 1s      1 1s      1 2px     1 2py     2 1s      2 1s      2 2px     2 2py     3 1s      3 1s   
                                   3 2px     3 2py     4 1s      4 1s      4 2px     4 2py     5 1s      5 1s      5 2px     5 2py  
                                   6 1s      6 1s      6 2px     6 2py     7 1s      8 1s      9 1s     10 1s     11 1s     12 1s   
                                  13 1s   

   1.1   2   -11.0318  -40.2911  0.024171 -0.006781 -0.001836  0.004141  0.991674  0.036249 -0.000795  0.000594 -0.017104 -0.007047
                                -0.002113 -0.003875 -0.012590 -0.000124  0.000028  0.000109 -0.001733 -0.000021  0.000034  0.000004
                                -0.000138 -0.000001 -0.000001  0.000000 -0.000055 -0.000070 -0.006837  0.000183  0.000002  0.000002
                                 0.000005

   2.1   2   -11.0303  -42.3858  0.000193  0.000050  0.000013 -0.000035 -0.005086  0.000391 -0.000202 -0.000379 -0.105169 -0.001182
                                 0.000542 -0.001296 -0.338128 -0.015375  0.001292  0.002552  0.588199  0.018442 -0.000195  0.003952
                                 0.716798  0.017065  0.002027  0.000723  0.000005  0.000009  0.000049  0.000646  0.002305 -0.004082
                                -0.004859

   3.1   2   -11.0302  -42.0142 -0.000373 -0.000168 -0.000043  0.000114  0.016440 -0.000888  0.000486  0.001019  0.259175  0.002621
                                -0.001524  0.003466  0.889879  0.029210  0.000218  0.000314  0.216586 -0.000064 -0.002264 -0.002421
                                 0.281195  0.006940  0.000805  0.000425 -0.000012 -0.000018 -0.000163 -0.001736 -0.006125 -0.001454
                                -0.002006

   4.1   2   -11.0297  -42.4172  0.000004 -0.000020 -0.000004  0.000011  0.001300  0.000068 -0.000025  0.000010 -0.006799 -0.000141
                                -0.000069 -0.000030  0.013311 -0.004747  0.001675  0.003013  0.769057  0.032555  0.001815 -0.003007
                                -0.626477 -0.024309  0.000587 -0.005989  0.000001  0.000002 -0.000020 -0.000019  0.000013 -0.005294
                                 0.004274

   5.1   2   -11.0291  -41.4454 -0.000807  0.000072 -0.000086 -0.000012  0.013782 -0.005824  0.002060  0.003694  0.951787  0.036765
                                 0.001250 -0.001862 -0.279105 -0.017515  0.002068 -0.004075  0.011503  0.002547  0.000673  0.001084
                                -0.001829 -0.000268  0.000009 -0.000144 -0.000035 -0.000069 -0.000016 -0.006579  0.001992 -0.000171
                                 0.000039

   6.1   2   -11.0172  -38.4004  0.991987  0.036042  0.000638 -0.001369 -0.023521 -0.008522  0.001959 -0.004121  0.001335  0.000466
                                 0.000133  0.000083  0.000494 -0.000089  0.000000 -0.000078  0.000016 -0.000007 -0.000005 -0.000002
                                -0.000029  0.000000 -0.000000  0.000001 -0.006806 -0.006785  0.000247 -0.000111 -0.000004  0.000003
                                -0.000000

   7.1   2    -1.0622  -18.1941 -0.035164  0.090727  0.010633 -0.029965 -0.063622  0.164202 -0.024468 -0.019341 -0.095181  0.245872
                                 0.033507 -0.032686 -0.118078  0.304816 -0.043486 -0.007139 -0.136447  0.352433  0.049033 -0.023194
                                -0.144953  0.374307 -0.052742  0.008393  0.017024  0.019566  0.035612  0.052899  0.065979  0.076047
                                 0.080881

   8.1   2    -1.0213  -17.1385 -0.100072  0.261599  0.028228 -0.073348 -0.140110  0.366036 -0.048262  0.005574 -0.113539  0.297653
                                 0.041404  0.036613 -0.040838  0.106299 -0.009357  0.090689  0.068014 -0.177595 -0.019192  0.086460
                                 0.128948 -0.337539  0.045274  0.019675  0.055395  0.059799  0.082831  0.067781  0.023682 -0.039874
                                -0.076726

   9.1   2    -0.9457  -16.7802 -0.132729  0.357019  0.031589 -0.059029 -0.093647  0.249785 -0.022938  0.130001  0.077186 -0.206364
                                -0.016375  0.139666  0.132688 -0.356542  0.037675 -0.044420  0.017083 -0.047141 -0.011349 -0.139181
                                -0.102052  0.275141 -0.033430 -0.065501  0.096052  0.092236  0.060326 -0.050400 -0.088784 -0.012750
                                 0.069242

  10.1   2    -0.8150  -16.6578  0.111851 -0.322237 -0.002960 -0.049187 -0.039765  0.118148 -0.007984 -0.195650 -0.111201  0.319823
                                 0.020600  0.089131  0.065373 -0.190033  0.017386  0.196594  0.105826 -0.304864 -0.019513 -0.138127
                                -0.089458  0.258444 -0.018827 -0.175513 -0.138771 -0.114838  0.043489  0.100971 -0.061384 -0.097732
                                 0.083206

  11.1   2    -0.7138  -14.8209 -0.086011  0.268739 -0.142611  0.152090  0.121811 -0.374250 -0.176922  0.033550 -0.073301  0.223077
                                -0.152319 -0.128224 -0.004464  0.008972 -0.086034  0.135947  0.056085 -0.169643 -0.025991 -0.003644
                                -0.033427  0.104280 -0.005936 -0.137916  0.139370  0.212404 -0.263216  0.183938 -0.061329 -0.045441
                                 0.039478

  12.1   2    -0.7063  -16.1872 -0.030879  0.097774  0.020697  0.080710  0.020148 -0.060632  0.087389  0.036213  0.043443 -0.139451
                                 0.169610 -0.129928 -0.099327  0.306210  0.218090  0.076598  0.108551 -0.335780  0.184368  0.001616
                                -0.050410  0.157675  0.076105 -0.126720  0.090034  0.028470  0.037024 -0.175212  0.263901 -0.254250
                                 0.116447

  13.1   2    -0.6153  -15.8764  0.009932 -0.035396 -0.179748 -0.176325 -0.009905  0.025169 -0.260274 -0.047263 -0.000364  0.012673
                                -0.091432  0.256728  0.008005 -0.013741  0.145932 -0.221477 -0.010019  0.020821  0.269591 -0.030667
                                 0.004823 -0.016251  0.140827  0.238998 -0.201359  0.105874 -0.178071  0.083222  0.109781 -0.189434
                                 0.086933

  14.1   2    -0.5673  -15.3292  0.006981 -0.036141  0.301844 -0.065930 -0.006189  0.014798  0.086893  0.248085 -0.006768  0.030832
                                -0.286654 -0.122499 -0.006135  0.015747 -0.186379 -0.117810  0.027902 -0.098161  0.209285  0.138098
                                -0.017331  0.065477  0.190921  0.014541  0.076797 -0.262915  0.059525  0.227605 -0.131107 -0.197856
                                 0.174861

  15.1   2    -0.5400  -15.5468  0.007728 -0.007472  0.010412  0.413223  0.023069 -0.062894  0.180412 -0.300280 -0.045077  0.155090
                                 0.016459  0.102403  0.052852 -0.179358 -0.000837  0.013015 -0.034129  0.103869  0.154047 -0.196749
                                 0.008440 -0.034192  0.095643  0.380475  0.300205  0.028861  0.137212  0.065360 -0.082913 -0.085957
                                 0.042247

  16.1   2    -0.4956  -15.0010 -0.004890  0.010235  0.312122  0.020974  0.016689 -0.067884 -0.154885  0.099976 -0.016210  0.063805
                                -0.143364  0.107689  0.003825 -0.002468  0.321049  0.021131 -0.006695  0.019256 -0.043599 -0.241733
                                 0.003770 -0.024292 -0.279281  0.048848  0.190098 -0.283265 -0.176715  0.167426  0.282861  0.034173
                                -0.266111

  17.1   2    -0.4664  -16.5145  0.022484 -0.070606 -0.099575  0.193301 -0.001362  0.012812  0.168162 -0.171396  0.024934 -0.075927
                                -0.257168  0.261869  0.001770  0.005049  0.175538 -0.336956  0.017919 -0.054575 -0.110584  0.289796
                                 0.006382 -0.014943  0.014015 -0.366289  0.067430  0.094183  0.199585  0.245024  0.213378  0.111374
                                 0.041705

  18.1   2    -0.4532  -15.3142 -0.005237  0.019882  0.199152  0.054664 -0.004585  0.012976 -0.248183 -0.087127 -0.010624  0.038512
                                 0.169712  0.157608  0.013437 -0.047413  0.064019  0.031023  0.008462 -0.024642 -0.248307  0.136745
                                 0.023684 -0.078291  0.403793 -0.010473  0.175739 -0.200270 -0.244496 -0.141676  0.045095  0.270281
                                 0.398132

  19.1   2    -0.4320  -15.9173 -0.003429  0.005899 -0.118468 -0.116398  0.020099 -0.076193  0.210477  0.206107  0.009718 -0.041844
                                -0.213201 -0.202693  0.021045 -0.081749  0.236485  0.230737  0.015478 -0.062553 -0.227326 -0.240814
                                 0.018506 -0.073250  0.231147  0.246159 -0.174909  0.134323  0.185116  0.219647  0.224414  0.227541
                                 0.225781

  20.1   0     0.5814  -13.2334  0.021078 -0.136365 -0.405529 -0.091477  0.000692  0.002019 -0.533527 -0.127072  0.008035 -0.063269
                                -0.526027 -0.095059  0.006368 -0.027395 -0.485381  0.020909  0.004153 -0.036219 -0.304910 -0.127712
                                 0.007000 -0.041439 -0.126006  0.107418  0.403871 -0.341776  0.552829 -0.524641  0.521801 -0.301057
                                 0.156477

  21.1   0     0.6595  -12.7742  0.003642 -0.031258 -0.396675 -0.300400  0.048504 -0.315886 -0.396724 -0.061537  0.057691 -0.360463
                                 0.125180 -0.035638 -0.073582  0.445532  0.319993  0.075378  0.074864 -0.454196  0.387325  0.022474
                                -0.045371  0.279546  0.214436  0.023082  0.471060 -0.364629  0.558316  0.283857 -0.564020  0.628760
                                -0.354613

  22.1   0     0.6870  -11.0039 -0.193936  1.230730 -0.157126  0.362972  0.085248 -0.503039  0.048575 -0.041387 -0.079135  0.492489
                                -0.036592  0.038429  0.057893 -0.363437  0.033686 -0.040813  0.001124 -0.008857  0.155523  0.144375
                                -0.024386  0.159211  0.130646 -0.003968 -0.819146 -0.781044  0.231520 -0.256245  0.141736  0.166029
                                -0.212269

  23.1   0     0.6948  -13.4261  0.046400 -0.317515  0.273188  0.032355  0.090520 -0.562155 -0.024466  0.469089 -0.154635  0.986422
                                -0.283141  0.365428 -0.053647  0.359308  0.210643 -0.282006  0.039075 -0.241462  0.111245 -0.278019
                                 0.033260 -0.227930 -0.093736 -0.093682 -0.036851  0.427951  0.360122 -0.787087 -0.390106  0.273836
                                 0.176570

  24.1   0     0.7039  -13.8297 -0.047747  0.295827 -0.059020 -0.141162  0.106959 -0.687347 -0.122688  0.110113  0.017032 -0.122130
                                 0.326240  0.320473 -0.031487  0.219948  0.306699  0.234786 -0.133294  0.854583 -0.319425 -0.021348
                                 0.085226 -0.543686 -0.223006 -0.212827 -0.018311 -0.211978  0.460318  0.378171 -0.407493 -0.742645
                                 0.515757

  25.1   0     0.7064  -14.3025 -0.048527  0.324092 -0.221769  0.257200 -0.090003  0.585766  0.088164 -0.252058  0.062570 -0.370755
                                -0.183287 -0.196456 -0.131354  0.825668  0.003669 -0.414103  0.077497 -0.489507 -0.064308 -0.605214
                                 0.074697 -0.506913 -0.402024 -0.044120 -0.224571 -0.379923 -0.334923  0.060317 -0.438595  0.169105
                                 0.586132

  26.1   0     0.8142  -14.6617  0.011642 -0.083465  0.090630  0.468964 -0.045835  0.320560 -0.113388  0.140184  0.078720 -0.526474
                                -0.354298  0.475708 -0.145168  0.988463  0.022731  0.297721  0.032540 -0.201077 -0.636944  0.061565
                                -0.096605  0.668172  0.417989  0.298516 -0.332546  0.063141 -0.013349 -0.069153 -0.390920 -0.387872
                                -0.556479

  27.1   0     0.8620  -13.4642  0.033287 -0.224879 -0.642915 -0.031401 -0.084871  0.594853  0.352372  0.191453 -0.072696  0.513634
                                -0.383227 -0.303667  0.041999 -0.273197  0.661776  0.052193 -0.105823  0.732456 -0.034093  0.076235
                                 0.015246 -0.095260  0.339061 -0.288981  0.408556 -0.389768 -0.485662 -0.456085 -0.359179 -0.301724
                                -0.206116

  28.1   0     0.9476  -14.4348  0.068720 -0.507495 -0.046487  0.811034 -0.097079  0.708514 -0.539067  0.428776  0.061312 -0.446639
                                -0.208058  0.027096  0.027675 -0.186530  0.077205  0.724218 -0.061353  0.422466  0.659003  0.213467
                                 0.056326 -0.406805 -0.248679 -0.219430 -0.292184  0.087761  0.145299  0.008762  0.037562  0.290480
                                 0.318332

  29.1   0     0.9943  -13.9917 -0.024950  0.193567  0.663884 -0.010380 -0.008317  0.034913 -0.545252 -0.725564  0.025361 -0.161571
                                -0.277296 -0.757106  0.021938 -0.169023  0.356319 -0.194550 -0.071303  0.530311  0.005573 -0.329080
                                 0.029621 -0.216447  0.462188 -0.414714 -0.325834  0.412117  0.338101 -0.098618 -0.203425 -0.172374
                                -0.252108

  30.1   0     1.0738  -14.4548  0.064194 -0.508501 -0.304181  0.560911 -0.032606  0.268794 -0.369834  0.764085 -0.043723  0.332047
                                 0.732872 -0.246206  0.025769 -0.213903 -0.230855 -0.710550 -0.003464  0.043712 -0.227592 -0.568041
                                 0.009509 -0.077967  0.467978 -0.277516 -0.034262 -0.083304  0.194195  0.399797  0.208253 -0.148119
                                -0.308868

  31.1   0     1.1189  -15.5741 -0.026033  0.206801 -0.028909 -0.259012  0.029068 -0.225229  0.382003 -0.107481  0.047155 -0.378344
                                -0.170630  0.642566 -0.055586  0.436656 -0.609679  0.438297 -0.064153  0.510715  0.442016 -0.815815
                                 0.068352 -0.540590  0.624017 -0.725508  0.085017 -0.074687 -0.190094 -0.009922  0.284546  0.153924
                                -0.266435

                                   1 2pz     2 2pz     3 2pz     4 2pz     5 2pz     6 2pz  

   1.2   2    -0.4380  -16.7818  0.132006  0.206257  0.312195  0.371138  0.431411  0.452949

   2.2   2    -0.3744  -15.6679  0.381881  0.473923  0.338552  0.136295 -0.262309 -0.423374

   3.2   2    -0.2533  -15.4615  0.489233  0.353762 -0.388526 -0.500670  0.031581  0.344037

   4.2   0     0.1513  -15.7417 -0.412860  0.175336  0.524423 -0.345414 -0.545626  0.479897

   5.2   0     0.3159  -14.8543 -0.591016  0.599004 -0.018879 -0.402397  0.602185 -0.337078

   6.2   0     0.4436  -15.1730 -0.369968  0.565379 -0.678817  0.642344 -0.427472  0.182327

                                   1 1s      1 1s      1 2px     1 2py     2 1s      2 1s      2 2px     2 2py     3 1s      3 1s   
                                   3 2px     3 2py     4 1s      4 1s      4 2px     4 2py     5 1s      5 1s      5 2px     5 2py  
                                   6 1s      6 1s      6 2px     6 2py     7 1s      8 1s      9 1s     10 1s     11 1s     12 1s   
                                  13 1s   

   1.3   2   -11.0318  -40.2911  0.024171 -0.006781 -0.001836  0.004141  0.991674  0.036249 -0.000795  0.000594 -0.017103 -0.007047
                                -0.002113 -0.003875 -0.012585 -0.000123  0.000028  0.000109 -0.001754 -0.000021  0.000034  0.000003
                                -0.000328 -0.000012 -0.000001  0.000005 -0.000055 -0.000070 -0.006837  0.000183  0.000002  0.000002
                                 0.000005

   2.3   2   -11.0303  -42.4311  0.000141  0.000020  0.000005 -0.000015 -0.002054  0.000246 -0.000119 -0.000203 -0.060468 -0.000753
                                 0.000275 -0.000688 -0.180269 -0.010044  0.001315  0.002497  0.616211  0.017924 -0.000523  0.003476
                                 0.753981  0.027809 -0.001032 -0.005069  0.000003  0.000006  0.000019  0.000344  0.001231 -0.004130
                                -0.005144

   3.3   2   -11.0302  -41.9682 -0.000399 -0.000174 -0.000045  0.000118  0.017081 -0.000940  0.000513  0.001068  0.273226  0.002781
                                -0.001593  0.003636  0.934543  0.031475 -0.000021 -0.000171  0.105171 -0.003570 -0.002197 -0.003040
                                 0.160051  0.006324 -0.000221 -0.000986 -0.000012 -0.000019 -0.000169 -0.001819 -0.006427 -0.000658
                                -0.001172

   4.3   2   -11.0297  -42.4161  0.000004 -0.000021 -0.000004  0.000012  0.001366  0.000053 -0.000019  0.000021 -0.003770 -0.000110
                                -0.000087  0.000012  0.022093 -0.004502  0.001660  0.003067  0.770402  0.032914  0.001735 -0.003195
                                -0.624064 -0.033021  0.003363 -0.001092  0.000001  0.000002 -0.000020 -0.000036 -0.000063 -0.005407
                                 0.004456

   5.3   2   -11.0291  -41.4454 -0.000810  0.000072 -0.000086 -0.000012  0.013783 -0.005824  0.002060  0.003694  0.951763  0.036765
                                 0.001250 -0.001863 -0.279170 -0.017520  0.002069 -0.004074  0.012003  0.002551  0.000669  0.001092
                                -0.000509 -0.000258  0.000004 -0.000113 -0.000035 -0.000069 -0.000016 -0.006579  0.001993 -0.000174
                                 0.000021

   6.3   2   -11.0172  -38.4004  0.991987  0.036042  0.000638 -0.001369 -0.023521 -0.008522  0.001959 -0.004121  0.001338  0.000466
                                 0.000133  0.000083  0.000494 -0.000089  0.000000 -0.000078  0.000005 -0.000008 -0.000005 -0.000002
                                -0.000033  0.000000 -0.000000  0.000001 -0.006806 -0.006785  0.000247 -0.000111 -0.000004  0.000003
                                 0.000000

   7.3   2    -1.0465  -17.4689 -0.069486  0.180156  0.020472 -0.056196 -0.114571  0.297073 -0.042346 -0.021453 -0.141761  0.368129
                                 0.050015 -0.023578 -0.136561  0.354088 -0.046926  0.033154 -0.094103  0.244486  0.035597  0.036233
                                -0.037864  0.098026 -0.010488  0.062090  0.035390  0.039711  0.065504  0.080854  0.077883  0.053990
                                 0.021304

   8.3   2    -0.9873  -16.9189 -0.122888  0.325135  0.032454 -0.075710 -0.132541  0.349763 -0.040592  0.061974 -0.023672  0.063712
                                 0.013549  0.111897  0.085329 -0.226452  0.031484  0.077510  0.134027 -0.355057 -0.043485  0.001079
                                 0.069735 -0.184011  0.017433 -0.112583  0.076467  0.078305  0.081808  0.015936 -0.054062 -0.084102
                                -0.042914

   9.3   2    -0.8994  -17.0712 -0.117393  0.322485  0.023113 -0.024114 -0.036858  0.098178 -0.004055  0.164053  0.121379 -0.332247
                                -0.028531  0.081110  0.070580 -0.191723  0.011341 -0.167860 -0.115508  0.315782  0.025267 -0.121591
                                -0.097536  0.266120 -0.019503  0.152020  0.101626  0.091198  0.023152 -0.088021 -0.049857  0.083567
                                 0.069934

  10.3   2    -0.7607  -15.8321 -0.116327  0.348578 -0.035167  0.127790  0.092213 -0.276763 -0.015763  0.174599  0.054809 -0.166128
                                -0.011029 -0.212047 -0.111566  0.329822  0.000828 -0.040711  0.018666 -0.051205  0.005276  0.215741
                                 0.087482 -0.256190 -0.010552 -0.115028  0.184489  0.160333 -0.117258 -0.060596  0.120912 -0.014694
                                -0.095757

  11.3   2    -0.7206  -16.1190  0.012317 -0.037823  0.057934 -0.010029 -0.031941  0.098378  0.107643  0.006974  0.054730 -0.168979
                                 0.158559 -0.020066 -0.065728  0.203062  0.194779 -0.019543  0.067710 -0.209068  0.220127  0.001220
                                -0.065791  0.203983  0.230170 -0.020605 -0.000644 -0.055397  0.110876 -0.173185  0.211096 -0.230023
                                 0.235900

  12.3   2    -0.6970  -15.3970 -0.044506  0.141692 -0.142312  0.082012  0.081226 -0.252717 -0.194981 -0.030771 -0.080103  0.250329
                                -0.160357 -0.000263  0.033694 -0.105883 -0.050356  0.079218  0.043218 -0.136844  0.104153 -0.092806
                                -0.092437  0.288513  0.201277  0.022139  0.052142  0.160787 -0.229965  0.206605 -0.078032 -0.127666
                                 0.248788

  13.3   2    -0.6001  -16.3012  0.016534 -0.065985  0.197765 -0.128113 -0.030645  0.096037  0.079418  0.198767  0.018046 -0.053086
                                -0.203381 -0.073423  0.000585 -0.008320 -0.269897 -0.172388 -0.011863  0.047764 -0.010162  0.319762
                                 0.013156 -0.027466  0.265385 -0.167050 -0.027687 -0.189707  0.088120  0.124627 -0.195920  0.040429
                                 0.191544

  14.3   2    -0.5890  -15.0002 -0.011591  0.047914  0.180421  0.327175  0.031621 -0.092903  0.282449 -0.054874 -0.039184  0.118780
                                 0.069797 -0.231548  0.025051 -0.095441 -0.125147  0.284285  0.013671 -0.044746 -0.102426 -0.162043
                                -0.047077  0.154123  0.012132  0.043678  0.316993 -0.090892  0.176431 -0.012270 -0.146071  0.050869
                                 0.072505

  15.3   2    -0.5280  -15.1510 -0.001985 -0.005218  0.321709 -0.045740  0.012945 -0.054202 -0.042382  0.221285 -0.017366  0.068949
                                -0.267702 -0.029857 -0.010947  0.043413  0.120598 -0.046449  0.020547 -0.084204  0.239484 -0.174382
                                -0.002604 -0.004276 -0.225783  0.158109  0.125035 -0.283271 -0.073230  0.250434  0.120851 -0.245480
                                -0.195209

  16.3   2    -0.4949  -15.7969  0.026138 -0.073269 -0.083098  0.361804  0.000144  0.014478  0.173731 -0.339704 -0.002635  0.023542
                                -0.158215  0.322075  0.023283 -0.070039  0.050911 -0.366439 -0.024144  0.082726  0.151405  0.174063
                                 0.036856 -0.127373 -0.003428 -0.025573  0.203668  0.084734  0.194562  0.180929  0.036366 -0.080314
                                -0.065381

  17.3   2    -0.4694  -15.0808 -0.001798  0.006195  0.248474  0.086386  0.006016 -0.026931 -0.212309 -0.053079 -0.006049  0.026479
                                 0.000904  0.227377  0.016685 -0.050767  0.299334 -0.004397  0.000435  0.007312 -0.334640  0.023980
                                 0.007993 -0.021422  0.158932 -0.139896  0.217278 -0.238292 -0.212202  0.034727  0.271048  0.338420
                                 0.154157

  18.3   2    -0.4417  -14.8470  0.005354 -0.023482 -0.191249 -0.075848  0.017664 -0.063986  0.303153  0.169190  0.024731 -0.090918
                                -0.331049 -0.137311  0.008797 -0.032340  0.259930  0.074176  0.025023 -0.090643 -0.207671 -0.120091
                                -0.009980  0.035681  0.038498 -0.034674 -0.195690  0.202217  0.293105  0.317313  0.280359  0.178098
                                 0.071697

  19.3   0     0.5453  -14.5377 -0.021073  0.129094  0.239222  0.014175  0.019599 -0.121409  0.342137  0.123590 -0.023524  0.147673
                                 0.419890  0.009007  0.025405 -0.163029  0.489250  0.089961 -0.025880  0.165967  0.531127  0.034359
                                 0.027439 -0.176654  0.553698  0.065161 -0.245958  0.185954 -0.297732  0.378003 -0.436860  0.485731
                                -0.502098

  20.3   0     0.6243  -12.7829 -0.003205  0.031730  0.451489  0.206352 -0.044045  0.270433  0.523687  0.060226 -0.000217  0.012669
                                 0.255974  0.120328 -0.004464  0.031418  0.043185 -0.108573 -0.038428  0.227792 -0.314441  0.040277
                                 0.047616 -0.276058 -0.474236 -0.065214 -0.442920  0.424556 -0.674048  0.270832 -0.057287 -0.435350
                                 0.629402

  21.3   0     0.6784  -12.8877 -0.109614  0.688992  0.114811  0.317341  0.068036 -0.396329  0.138822  0.129397 -0.144275  0.894854
                                -0.192550  0.040978  0.137439 -0.851501 -0.161325  0.015265 -0.069361  0.422889  0.091871  0.114017
                                 0.047910 -0.295112  0.205986  0.104605 -0.667962 -0.238114  0.077680 -0.621109  0.588556 -0.114877
                                -0.079837

  22.3   0     0.6890  -13.2116 -0.097964  0.616319 -0.288712 -0.136937  0.106030 -0.671994 -0.198525 -0.033253  0.023847 -0.163657
                                 0.346001  0.103199 -0.000463  0.007598  0.330768  0.229896 -0.093185  0.581113  0.029510  0.049338
                                 0.136196 -0.845245 -0.152260  0.116896 -0.054863 -0.589386  0.528325  0.425554 -0.361126 -0.253733
                                 0.586018

  23.3   0     0.6939  -12.3130  0.133084 -0.868449  0.307527 -0.345622  0.082170 -0.539886 -0.120899  0.430356 -0.080593  0.494928
                                 0.031660  0.320706  0.040063 -0.230479  0.149787  0.233795 -0.108144  0.688459 -0.078921  0.072344
                                 0.039229 -0.239084  0.124080 -0.121573  0.513812  0.743739  0.376703 -0.258576 -0.007963 -0.388496
                                -0.014120

  24.3   0     0.6979  -14.1803 -0.030220  0.202297 -0.081335 -0.038516 -0.021018  0.124733  0.014725 -0.198375  0.085484 -0.558418
                                 0.227860 -0.060056  0.060408 -0.380783 -0.109443  0.369636 -0.115389  0.750313 -0.305393  0.261416
                                -0.114053  0.732298  0.234305 -0.421578 -0.017568 -0.188615 -0.119328  0.513919  0.351058 -0.699884
                                -0.639169

  25.3   0     0.7072  -14.3197 -0.062902  0.391511  0.083888  0.231033  0.080843 -0.496933  0.006493  0.229312 -0.048910  0.317663
                                -0.110084  0.457623 -0.127375  0.830702  0.275215 -0.191665  0.033804 -0.181908 -0.319307 -0.181987
                                -0.131828  0.828366 -0.104491 -0.554105 -0.426672 -0.134261  0.297486 -0.254087 -0.634434 -0.161443
                                -0.307287

  26.3   0     0.8104  -14.5254 -0.033200  0.216242  0.429932 -0.129347  0.114173 -0.774752 -0.150437 -0.005323  0.019788 -0.155463
                                 0.479138  0.358364  0.019005 -0.135081 -0.401308  0.069680  0.119844 -0.817308  0.063443  0.579782
                                -0.109149  0.731559 -0.372471  0.383170 -0.216736  0.252377  0.428388  0.392241  0.354459  0.346338
                                 0.002595

  27.3   0     0.8830  -14.6081  0.041496 -0.299168  0.152157  0.736657 -0.077457  0.550006 -0.420148  0.230706  0.112915 -0.790323
                                -0.382062  0.413138 -0.085985  0.608869 -0.100526  0.725463 -0.012851  0.080259 -0.084896  0.121799
                                 0.052865 -0.349940  0.320338  0.576225 -0.428627  0.166098  0.121545  0.005795 -0.132899 -0.106301
                                -0.068737

  28.3   0     0.9343  -14.0738  0.029995 -0.218322 -0.688813  0.001393 -0.032869  0.253728  0.486411  0.527557 -0.055118  0.382383
                                -0.099052  0.305644  0.024042 -0.151715  0.357655  0.313244  0.026114 -0.200274 -0.079084  0.851181
                                -0.078706  0.570502 -0.293759  0.419339  0.372393 -0.422295 -0.418325 -0.226995 -0.168549 -0.013479
                                 0.017819

  29.3   0     1.0140  -14.8040 -0.068219  0.521132  0.152562 -0.679669  0.069582 -0.527355  0.521736 -0.543810  0.004937 -0.032978
                                -0.212714  0.292742 -0.073569  0.541361 -0.122304 -0.120829  0.034682 -0.254429 -0.635096 -0.118903
                                 0.038073 -0.259304  0.556684  0.826273  0.156823 -0.023546 -0.198232 -0.140877 -0.112091 -0.349979
                                -0.261251

  30.3   0     1.0419  -14.5559  0.030340 -0.241913 -0.497662  0.154690  0.012011 -0.064398  0.294449  0.739188 -0.005932  0.023868
                                 0.529413  0.666988 -0.042742  0.313056 -0.772231 -0.140486  0.016360 -0.109606  0.011275 -0.682154
                                 0.052550 -0.398697  0.279865 -0.127094  0.181982 -0.286229 -0.149614  0.329651  0.420049  0.070115
                                -0.061683

  31.3   0     1.1053  -14.9545 -0.047971  0.383312  0.111296 -0.442972  0.032465 -0.260277  0.464788 -0.438317  0.059169 -0.468373
                                -0.546249  0.623077 -0.040236  0.328327 -0.280780  0.841423 -0.036191  0.277534  0.680690 -0.091649
                                 0.008184 -0.077663 -0.290119 -0.614519  0.079548 -0.020921 -0.249522 -0.240257  0.110701  0.377366
                                 0.206625

                                   1 2pz     2 2pz     3 2pz     4 2pz     5 2pz     6 2pz  

   1.4   2    -0.4138  -16.0073  0.262728  0.377257  0.457940  0.438516  0.282643  0.132434

   2.4   2    -0.3202  -15.4779  0.469315  0.466936 -0.009621 -0.296686 -0.456688 -0.273874

   3.4   2    -0.1815  -16.1040  0.370256  0.173964 -0.480359 -0.332796  0.507152  0.452895

   4.4   0     0.2330  -14.9611  0.578923 -0.407582 -0.438342  0.594385  0.008516 -0.427363

   5.4   0     0.3881  -14.9311  0.510154 -0.663078  0.489880 -0.171108 -0.352718  0.602365

   6.4   0     0.4784  -15.9000 -0.193536  0.324165 -0.475952  0.571896 -0.656472  0.691138

 HOMO      3.4    -0.181494 =      -4.9387eV
 LUMO      4.2     0.151275 =       4.1164eV
 LUMO-HOMO         0.332769 =       9.0551eV


 **********************************************************************************************************************************
 DATASETS  * FILE   NREC   LENGTH (MB)   RECORD NAMES
              1      19       12.26       500      610      700      900      950      970     1000      129      960     1100   
                                          VAR    BASINP    GEOM    SYMINP    ZMAT    AOBASIS   BASIS     P2S    ABASIS      S 
                                         1400     1410     1200     1210     1080     1600     1650     1300     1700   
                                           T        V       H0       H01     AOSYM     SMH    MOLCAS    ERIS     OPER   

              2       4        0.77       700     1000      520     2100   
                                         GEOM     BASIS   MCVARS     RHF  

 PROGRAMS   *        TOTAL        HF       INT
 CPU TIMES  *         1.26      0.18      0.96
 REAL TIME  *         9.25 SEC
 DISK USED  *        26.44 MB      
 **********************************************************************************************************************************

1PROGRAM * FCI (Full CI)     Author: P.J. Knowles, 1984

 ***  Initialisation ***
 
 Molecular orbitals read from record     2100.2  Type=RHF/CANONICAL (state 1.1)
 
 Frozen orbitals:             37 ( 19  0 18  0  0  0  0  0)
 Active orbitals:             12 (  0  6  0  6  0  0  0  0)
 Active electrons:            12
 Spin quantum number:          0.0
 Orbital pairs:                    42       0      36       0       0       0       0       0
 Strings:                         452       0     472       0       0       0       0       0
                                  452       0     472       0       0       0       0       0
 Determinants:                 427088       0  426688       0       0       0       0       0

 Load integrals                1.3 sec
 Transform integrals           1.6 sec
 Storage for integrals:           3360
 Remaining memory:           *********

 Core energy:            -442.26453738
 Run Hamiltonian processor DAVIDSON
 Symmetry:                   1
 Trial vector:                  0.00
 Result vector:                 0.00
 Maximum iterations:           90
 Convergence threshold:         0.0000100
 RHS vector:                    0.00
 Hamiltonian shift:             0.0000000
 Output threshold:              0.0500000
 Options:                        0
 Number of roots:             1

 Hamiltonian diagonaliser entered at time      2.93

 Initial configuration generated:
  212819      1.0000000   -456.7978323

 It  Tr    CPU  Convergence   Energy       Pop     dE(next)

  1   1    3.3  1.00000000  -456.79783234
                                           0.00 -0.18337694 -0.18336425
  2   1    3.7  0.44602340  -456.98989250
                                           0.06 -0.03664558 -0.03615372
  3   1    4.1  0.19589803  -457.03623706
                                           0.11 -0.01138171 -0.01043558
  4   1    4.5  0.08385512  -457.04656215
                                           0.20 -0.00401002 -0.00356623
  5   1    5.1  0.04600620  -457.05030094
                                           0.21 -0.00147195 -0.00125040
  6   1    5.9  0.02302645  -457.05139933
                                           0.25 -0.00053426 -0.00043469
  7   1    6.7  0.01491402  -457.05182654
                                           0.27 -0.00019099 -0.00015526
  8   1    7.3  0.00888930  -457.05198371
                                           0.26 -0.00007822 -0.00006386
  9   1    8.0  0.00562712  -457.05204685
                                           0.26 -0.00003605 -0.00002922
 10   1    8.6  0.00385707  -457.05207612
                                           0.25 -0.00001832 -0.00001475
 11   1    9.5  0.00270319  -457.05209062
                                           0.26 -0.00001009 -0.00000804
 12   1   10.4  0.00202479  -457.05209874
                                           0.28 -0.00000525 -0.00000421
 13   1   11.3  0.00140714  -457.05210300
                                           0.28 -0.00000257 -0.00000207
 14   1   12.2  0.00090373  -457.05210494
                                           0.27 -0.00000117 -0.00000093
 15   1   13.1  0.00058891  -457.05210578
                                           0.28 -0.00000048 -0.00000038
 16   1   13.9  0.00037978  -457.05210614
                                           0.27 -0.00000020 -0.00000016
 17   1   14.6  0.00024423  -457.05210628
                                           0.27 -0.00000008 -0.00000007
 18   1   15.2  0.00017424  -457.05210635
                                           0.27 -0.00000004 -0.00000003
 19   1   15.9  0.00012082  -457.05210638
                                           0.27 -0.00000002 -0.00000002
 20   1   16.9  0.00008125  -457.05210640
                                           0.27 -0.00000001 -0.00000001
 21   1   17.6  0.00005631  -457.05210640
                                           0.28 -0.00000000 -0.00000000
 22   1   18.3  0.00003715  -457.05210641
                                           0.29 -0.00000000 -0.00000000
 23   1   19.3  0.00002292  -457.05210641
                                           0.29 -0.00000000 -0.00000000
 24   1   20.0  0.00001427  -457.05210641
                                           0.29 -0.00000000 -0.00000000
 25   1   20.8  0.00000861  -457.05210641


RESULTS FOR STATE 1.1
=====================

 Correlation energy                    -0.254274064993
 !FCI STATE 1.1 Energy               -457.052106408795
 CI Vector (threshold= 0.500E-01)
      -0.170576512980  1  2  3  4  5  6  7  8  9 10 11 12 13 14 15 16 17 18 19 20 21 22 23 24 25 26 27 28 29 30 31 32 33 34 35 36 37 38 39 40 41 44 45  1  2  3  4  5  6  7  8  9 10 11 12 13 14 15 16 17 18 19 20 21
       0.000000000000 23 24 25 26 27 28 29 30 31 32 33 34 35 36 37 38 39 40 41 44 45
      -0.068988695967  1  2  3  4  5  6  7  8  9 10 11 12 13 14 15 16 17 18 19 20 21 22 23 24 25 26 27 28 29 30 31 32 33 34 35 36 37 38 39 40 41 44 45  1  2  3  4  5  6  7  8  9 10 11 12 13 14 15 16 17 18 19 20 21
       0.000000000000 23 24 25 26 27 28 29 30 31 32 33 34 35 36 37 38 39 44 45 46 47
       0.071550337387  1  2  3  4  5  6  7  8  9 10 11 12 13 14 15 16 17 18 19 20 21 22 23 24 25 26 27 28 29 30 31 32 33 34 35 36 37 38 39 40 41 44 46  1  2  3  4  5  6  7  8  9 10 11 12 13 14 15 16 17 18 19 20 21
       0.000000000000 23 24 25 26 27 28 29 30 31 32 33 34 35 36 37 38 39 40 42 44 45
      -0.051747554174  1  2  3  4  5  6  7  8  9 10 11 12 13 14 15 16 17 18 19 20 21 22 23 24 25 26 27 28 29 30 31 32 33 34 35 36 37 38 39 40 41 45 46  1  2  3  4  5  6  7  8  9 10 11 12 13 14 15 16 17 18 19 20 21
       0.000000000000 23 24 25 26 27 28 29 30 31 32 33 34 35 36 37 38 39 40 43 44 45
       0.071550337387  1  2  3  4  5  6  7  8  9 10 11 12 13 14 15 16 17 18 19 20 21 22 23 24 25 26 27 28 29 30 31 32 33 34 35 36 37 38 39 40 42 44 45  1  2  3  4  5  6  7  8  9 10 11 12 13 14 15 16 17 18 19 20 21
       0.000000000000 23 24 25 26 27 28 29 30 31 32 33 34 35 36 37 38 39 40 41 44 46
      -0.055977868737  1  2  3  4  5  6  7  8  9 10 11 12 13 14 15 16 17 18 19 20 21 22 23 24 25 26 27 28 29 30 31 32 33 34 35 36 37 38 39 40 42 44 46  1  2  3  4  5  6  7  8  9 10 11 12 13 14 15 16 17 18 19 20 21
       0.000000000000 23 24 25 26 27 28 29 30 31 32 33 34 35 36 37 38 39 40 42 44 46
      -0.051747554174  1  2  3  4  5  6  7  8  9 10 11 12 13 14 15 16 17 18 19 20 21 22 23 24 25 26 27 28 29 30 31 32 33 34 35 36 37 38 39 40 43 44 45  1  2  3  4  5  6  7  8  9 10 11 12 13 14 15 16 17 18 19 20 21
       0.000000000000 23 24 25 26 27 28 29 30 31 32 33 34 35 36 37 38 39 40 41 45 46
      -0.068988695967  1  2  3  4  5  6  7  8  9 10 11 12 13 14 15 16 17 18 19 20 21 22 23 24 25 26 27 28 29 30 31 32 33 34 35 36 37 38 39 44 45 46 47  1  2  3  4  5  6  7  8  9 10 11 12 13 14 15 16 17 18 19 20 21
       0.000000000000 23 24 25 26 27 28 29 30 31 32 33 34 35 36 37 38 39 40 41 44 45
      -0.087468789582  1  2  3  4  5  6  7  8  9 10 11 12 13 14 15 16 17 18 19 20 21 22 23 24 25 26 27 28 29 30 31 32 33 34 35 36 37 38 39 44 45 46 47  1  2  3  4  5  6  7  8  9 10 11 12 13 14 15 16 17 18 19 20 21
       0.000000000000 23 24 25 26 27 28 29 30 31 32 33 34 35 36 37 38 39 44 45 46 47
       0.801402002719  1  2  3  4  5  6  7  8  9 10 11 12 13 14 15 16 17 18 19 20 21 22 23 24 25 26 27 28 29 30 31 32 33 34 35 36 37 38 39 40 44 45 46  1  2  3  4  5  6  7  8  9 10 11 12 13 14 15 16 17 18 19 20 21
       0.000000000000 23 24 25 26 27 28 29 30 31 32 33 34 35 36 37 38 39 40 44 45 46
      -0.062322467501  1  2  3  4  5  6  7  8  9 10 11 12 13 14 15 16 17 18 19 20 21 22 23 24 25 26 27 28 29 30 31 32 33 34 35 36 37 38 39 40 44 45 47  1  2  3  4  5  6  7  8  9 10 11 12 13 14 15 16 17 18 19 20 21
       0.000000000000 23 24 25 26 27 28 29 30 31 32 33 34 35 36 37 38 39 40 44 45 47
       0.094571208510  1  2  3  4  5  6  7  8  9 10 11 12 13 14 15 16 17 18 19 20 21 22 23 24 25 26 27 28 29 30 31 32 33 34 35 36 37 38 39 40 44 45 47  1  2  3  4  5  6  7  8  9 10 11 12 13 14 15 16 17 18 19 20 21
       0.000000000000 23 24 25 26 27 28 29 30 31 32 33 34 35 36 37 38 39 41 44 45 46
      -0.058436977561  1  2  3  4  5  6  7  8  9 10 11 12 13 14 15 16 17 18 19 20 21 22 23 24 25 26 27 28 29 30 31 32 33 34 35 36 37 38 39 40 44 45 48  1  2  3  4  5  6  7  8  9 10 11 12 13 14 15 16 17 18 19 20 21
       0.000000000000 23 24 25 26 27 28 29 30 31 32 33 34 35 36 37 38 40 41 44 45 46
      -0.058842139884  1  2  3  4  5  6  7  8  9 10 11 12 13 14 15 16 17 18 19 20 21 22 23 24 25 26 27 28 29 30 31 32 33 34 35 36 37 38 39 40 44 45 49  1  2  3  4  5  6  7  8  9 10 11 12 13 14 15 16 17 18 19 20 21
       0.000000000000 23 24 25 26 27 28 29 30 31 32 33 34 35 36 37 39 40 41 44 45 46
      -0.055124626191  1  2  3  4  5  6  7  8  9 10 11 12 13 14 15 16 17 18 19 20 21 22 23 24 25 26 27 28 29 30 31 32 33 34 35 36 37 38 39 40 44 46 47  1  2  3  4  5  6  7  8  9 10 11 12 13 14 15 16 17 18 19 20 21
       0.000000000000 23 24 25 26 27 28 29 30 31 32 33 34 35 36 37 38 39 42 44 45 46
       0.094571208510  1  2  3  4  5  6  7  8  9 10 11 12 13 14 15 16 17 18 19 20 21 22 23 24 25 26 27 28 29 30 31 32 33 34 35 36 37 38 39 41 44 45 46  1  2  3  4  5  6  7  8  9 10 11 12 13 14 15 16 17 18 19 20 21
       0.000000000000 23 24 25 26 27 28 29 30 31 32 33 34 35 36 37 38 39 40 44 45 47
      -0.064387176132  1  2  3  4  5  6  7  8  9 10 11 12 13 14 15 16 17 18 19 20 21 22 23 24 25 26 27 28 29 30 31 32 33 34 35 36 37 38 39 41 44 45 46  1  2  3  4  5  6  7  8  9 10 11 12 13 14 15 16 17 18 19 20 21
       0.000000000000 23 24 25 26 27 28 29 30 31 32 33 34 35 36 37 38 39 41 44 45 46
      -0.055124626191  1  2  3  4  5  6  7  8  9 10 11 12 13 14 15 16 17 18 19 20 21 22 23 24 25 26 27 28 29 30 31 32 33 34 35 36 37 38 39 42 44 45 46  1  2  3  4  5  6  7  8  9 10 11 12 13 14 15 16 17 18 19 20 21
       0.000000000000 23 24 25 26 27 28 29 30 31 32 33 34 35 36 37 38 39 40 44 46 47
      -0.058436977561  1  2  3  4  5  6  7  8  9 10 11 12 13 14 15 16 17 18 19 20 21 22 23 24 25 26 27 28 29 30 31 32 33 34 35 36 37 38 40 41 44 45 46  1  2  3  4  5  6  7  8  9 10 11 12 13 14 15 16 17 18 19 20 21
       0.000000000000 23 24 25 26 27 28 29 30 31 32 33 34 35 36 37 38 39 40 44 45 48
      -0.058842139884  1  2  3  4  5  6  7  8  9 10 11 12 13 14 15 16 17 18 19 20 21 22 23 24 25 26 27 28 29 30 31 32 33 34 35 36 37 39 40 41 44 45 46  1  2  3  4  5  6  7  8  9 10 11 12 13 14 15 16 17 18 19 20 21
       0.000000000000 23 24 25 26 27 28 29 30 31 32 33 34 35 36 37 38 39 40 44 45 49
 /EOF
 !FCI STATE 1.1 Dipole moment           0.00000000     0.00000000     0.00000000
 Dipole moment /Debye                   0.00000000     0.00000000     0.00000000


 **********************************************************************************************************************************
 DATASETS  * FILE   NREC   LENGTH (MB)   RECORD NAMES
              1      19       12.26       500      610      700      900      950      970     1000      129      960     1100   
                                          VAR    BASINP    GEOM    SYMINP    ZMAT    AOBASIS   BASIS     P2S    ABASIS      S 
                                         1400     1410     1200     1210     1080     1600     1650     1300     1700   
                                           T        V       H0       H01     AOSYM     SMH    MOLCAS    ERIS     OPER   

              2       4        0.77       700     1000      520     2100   
                                         GEOM     BASIS   MCVARS     RHF  

 PROGRAMS   *        TOTAL       FCI        HF       INT
 CPU TIMES  *        20.82     19.56      0.18      0.96
 REAL TIME  *        55.93 SEC
 DISK USED  *       187.44 MB      
 **********************************************************************************************************************************

        FCI             HF-SCF  
   -457.05210641   -456.79783234
 **********************************************************************************************************************************
 Variable memory released
